compute-0-23
 Entering Gaussian System, Link 0=g16
 Initial command:
 /share/apps/g16/E6B-113X_avx2/g16/l1.exe "/state/partition1/csokas/Gau-46712.inp" -scrdir="/state/partition1/csokas/"
 Entering Link 1 = /share/apps/g16/E6B-113X_avx2/g16/l1.exe PID=     46717.
  
 Copyright (c) 1988,1990,1992,1993,1995,1998,2003,2009,2016,
            Gaussian, Inc.  All Rights Reserved.
  
 This is part of the Gaussian(R) 16 program.  It is based on
 the Gaussian(R) 09 system (copyright 2009, Gaussian, Inc.),
 the Gaussian(R) 03 system (copyright 2003, Gaussian, Inc.),
 the Gaussian(R) 98 system (copyright 1998, Gaussian, Inc.),
 the Gaussian(R) 94 system (copyright 1995, Gaussian, Inc.),
 the Gaussian 92(TM) system (copyright 1992, Gaussian, Inc.),
 the Gaussian 90(TM) system (copyright 1990, Gaussian, Inc.),
 the Gaussian 88(TM) system (copyright 1988, Gaussian, Inc.),
 the Gaussian 86(TM) system (copyright 1986, Carnegie Mellon
 University), and the Gaussian 82(TM) system (copyright 1983,
 Carnegie Mellon University). Gaussian is a federally registered
 trademark of Gaussian, Inc.
  
 This software contains proprietary and confidential information,
 including trade secrets, belonging to Gaussian, Inc.
  
 This software is provided under written license and may be
 used, copied, transmitted, or stored only in accord with that
 written license.
  
 The following legend is applicable only to US Government
 contracts under FAR:
  
                    RESTRICTED RIGHTS LEGEND
  
 Use, reproduction and disclosure by the US Government is
 subject to restrictions as set forth in subparagraphs (a)
 and (c) of the Commercial Computer Software - Restricted
 Rights clause in FAR 52.227-19.
  
 Gaussian, Inc.
 340 Quinnipiac St., Bldg. 40, Wallingford CT 06492
  
  
 ---------------------------------------------------------------
 Warning -- This program may not be used in any manner that
 competes with the business of Gaussian, Inc. or will provide
 assistance to any competitor of Gaussian, Inc.  The licensee
 of this program is prohibited from giving any competitor of
 Gaussian, Inc. access to this program.  By using this program,
 the user acknowledges that Gaussian, Inc. is engaged in the
 business of creating and licensing software in the field of
 computational chemistry and represents and warrants to the
 licensee that it is not a competitor of Gaussian, Inc. and that
 it will not use this program in any manner prohibited above.
 ---------------------------------------------------------------
  

 Cite this work as:
 Gaussian 16, Revision A.03,
 M. J. Frisch, G. W. Trucks, H. B. Schlegel, G. E. Scuseria, 
 M. A. Robb, J. R. Cheeseman, G. Scalmani, V. Barone, 
 G. A. Petersson, H. Nakatsuji, X. Li, M. Caricato, A. V. Marenich, 
 J. Bloino, B. G. Janesko, R. Gomperts, B. Mennucci, H. P. Hratchian, 
 J. V. Ortiz, A. F. Izmaylov, J. L. Sonnenberg, D. Williams-Young, 
 F. Ding, F. Lipparini, F. Egidi, J. Goings, B. Peng, A. Petrone, 
 T. Henderson, D. Ranasinghe, V. G. Zakrzewski, J. Gao, N. Rega, 
 G. Zheng, W. Liang, M. Hada, M. Ehara, K. Toyota, R. Fukuda, 
 J. Hasegawa, M. Ishida, T. Nakajima, Y. Honda, O. Kitao, H. Nakai, 
 T. Vreven, K. Throssell, J. A. Montgomery, Jr., J. E. Peralta, 
 F. Ogliaro, M. J. Bearpark, J. J. Heyd, E. N. Brothers, K. N. Kudin, 
 V. N. Staroverov, T. A. Keith, R. Kobayashi, J. Normand, 
 K. Raghavachari, A. P. Rendell, J. C. Burant, S. S. Iyengar, 
 J. Tomasi, M. Cossi, J. M. Millam, M. Klene, C. Adamo, R. Cammi, 
 J. W. Ochterski, R. L. Martin, K. Morokuma, O. Farkas, 
 J. B. Foresman, and D. J. Fox, Gaussian, Inc., Wallingford CT, 2016.
 
 ******************************************
 Gaussian 16:  ES64L-G16RevA.03 25-Dec-2016
                 1-Jun-2023 
 ******************************************
 %chk=butene.chk
 %nproc=24
 Will use up to   24 processors via shared memory.
 %mem=24000MB
 -----------------------------------------------------------------
 #P wB97XD/Def2SVP opt freq=noraman Int(Grid=UltraFine) nosymmetry
 -----------------------------------------------------------------
 1/18=20,19=15,26=4,38=1/1,3;
 2/9=110,12=2,15=1,17=6,18=5,40=1/2;
 3/5=43,7=101,11=2,25=1,30=1,71=1,74=-58,75=-5/1,2,3;
 4//1;
 5/5=2,38=5/2;
 6/7=2,8=2,9=2,10=2,28=1/1;
 7/30=1/1,2,3,16;
 1/18=20,19=15,26=4/3(2);
 2/9=110,15=1/2;
 99//99;
 2/9=110,15=1/2;
 3/5=43,7=101,11=2,25=1,30=1,71=1,74=-58,75=-5/1,2,3;
 4/5=5,16=3,69=1/1;
 5/5=2,38=5/2;
 7/30=1/1,2,3,16;
 1/18=20,19=15,26=4/3(-5);
 2/9=110,15=1/2;
 6/7=2,8=2,9=2,10=2,19=2,28=1/1;
 99/9=1/99;
 Leave Link    1 at Thu Jun  1 09:10:05 2023, MaxMem=  3145728000 cpu:               0.8 elap:               0.0
 (Enter /share/apps/g16/E6B-113X_avx2/g16/l101.exe)
 -------------------
 Title Card Required
 -------------------
 Symbolic Z-matrix:
 Charge =  0 Multiplicity = 1
 C                     1.09013   1.77223   0. 
 H                     1.6233    0.84452   0. 
 C                     1.76541   2.94721   0. 
 H                     1.23224   3.87491   0. 
 H                     2.83541   2.94721   0. 
 C                    -0.44987   1.77223   0. 
 H                    -0.98303   2.69993   0. 
 C                    -1.13211   0.60128   0. 
 H                    -0.60447  -0.32957   0. 
 H                    -2.20209   0.60764   0. 
 
 ITRead=  0  0  0  0  0  0  0  0  0  0
 MicOpt= -1 -1 -1 -1 -1 -1 -1 -1 -1 -1
 NAtoms=     10 NQM=       10 NQMF=       0 NMMI=      0 NMMIF=      0
                NMic=       0 NMicF=      0.
                    Isotopes and Nuclear Properties:
 (Nuclear quadrupole moments (NQMom) in fm**2, nuclear magnetic moments (NMagM)
  in nuclear magnetons)

  Atom         1           2           3           4           5           6           7           8           9          10
 IAtWgt=          12           1          12           1           1          12           1          12           1           1
 AtmWgt=  12.0000000   1.0078250  12.0000000   1.0078250   1.0078250  12.0000000   1.0078250  12.0000000   1.0078250   1.0078250
 NucSpn=           0           1           0           1           1           0           1           0           1           1
 AtZEff=   0.0000000   0.0000000   0.0000000   0.0000000   0.0000000   0.0000000   0.0000000   0.0000000   0.0000000   0.0000000
 NQMom=    0.0000000   0.0000000   0.0000000   0.0000000   0.0000000   0.0000000   0.0000000   0.0000000   0.0000000   0.0000000
 NMagM=    0.0000000   2.7928460   0.0000000   2.7928460   2.7928460   0.0000000   2.7928460   0.0000000   2.7928460   2.7928460
 AtZNuc=   6.0000000   1.0000000   6.0000000   1.0000000   1.0000000   6.0000000   1.0000000   6.0000000   1.0000000   1.0000000
 Leave Link  101 at Thu Jun  1 09:10:05 2023, MaxMem=  3145728000 cpu:               4.9 elap:               0.3
 (Enter /share/apps/g16/E6B-113X_avx2/g16/l103.exe)

 GradGradGradGradGradGradGradGradGradGradGradGradGradGradGradGradGradGrad
 Berny optimization.
 Initialization pass.
                           ----------------------------
                           !    Initial Parameters    !
                           ! (Angstroms and Degrees)  !
 --------------------------                            --------------------------
 ! Name  Definition              Value          Derivative Info.                !
 --------------------------------------------------------------------------------
 ! R1    R(1,2)                  1.07           estimate D2E/DX2                !
 ! R2    R(1,3)                  1.3552         estimate D2E/DX2                !
 ! R3    R(1,6)                  1.54           estimate D2E/DX2                !
 ! R4    R(3,4)                  1.07           estimate D2E/DX2                !
 ! R5    R(3,5)                  1.07           estimate D2E/DX2                !
 ! R6    R(6,7)                  1.07           estimate D2E/DX2                !
 ! R7    R(6,8)                  1.3552         estimate D2E/DX2                !
 ! R8    R(8,9)                  1.07           estimate D2E/DX2                !
 ! R9    R(8,10)                 1.07           estimate D2E/DX2                !
 ! A1    A(2,1,3)              120.2269         estimate D2E/DX2                !
 ! A2    A(2,1,6)              119.8865         estimate D2E/DX2                !
 ! A3    A(3,1,6)              119.8865         estimate D2E/DX2                !
 ! A4    A(1,3,4)              120.2269         estimate D2E/DX2                !
 ! A5    A(1,3,5)              119.8865         estimate D2E/DX2                !
 ! A6    A(4,3,5)              119.8865         estimate D2E/DX2                !
 ! A7    A(1,6,7)              119.8865         estimate D2E/DX2                !
 ! A8    A(1,6,8)              120.2269         estimate D2E/DX2                !
 ! A9    A(7,6,8)              119.8865         estimate D2E/DX2                !
 ! A10   A(6,8,9)              120.2269         estimate D2E/DX2                !
 ! A11   A(6,8,10)             119.8865         estimate D2E/DX2                !
 ! A12   A(9,8,10)             119.8865         estimate D2E/DX2                !
 ! D1    D(2,1,3,4)            180.0            estimate D2E/DX2                !
 ! D2    D(2,1,3,5)              0.0            estimate D2E/DX2                !
 ! D3    D(6,1,3,4)              0.0            estimate D2E/DX2                !
 ! D4    D(6,1,3,5)            180.0            estimate D2E/DX2                !
 ! D5    D(2,1,6,7)            180.0            estimate D2E/DX2                !
 ! D6    D(2,1,6,8)              0.0            estimate D2E/DX2                !
 ! D7    D(3,1,6,7)              0.0            estimate D2E/DX2                !
 ! D8    D(3,1,6,8)            180.0            estimate D2E/DX2                !
 ! D9    D(1,6,8,9)              0.0            estimate D2E/DX2                !
 ! D10   D(1,6,8,10)           180.0            estimate D2E/DX2                !
 ! D11   D(7,6,8,9)            180.0            estimate D2E/DX2                !
 ! D12   D(7,6,8,10)             0.0            estimate D2E/DX2                !
 --------------------------------------------------------------------------------
 Trust Radius=3.00D-01 FncErr=1.00D-07 GrdErr=1.00D-06 EigMax=2.50D+02 EigMin=1.00D-04
 Number of steps in this run=     43 maximum allowed number of steps=    100.
 GradGradGradGradGradGradGradGradGradGradGradGradGradGradGradGradGradGrad

 Leave Link  103 at Thu Jun  1 09:10:06 2023, MaxMem=  3145728000 cpu:               0.9 elap:               0.1
 (Enter /share/apps/g16/E6B-113X_avx2/g16/l202.exe)
                          Input orientation:                          
 ---------------------------------------------------------------------
 Center     Atomic      Atomic             Coordinates (Angstroms)
 Number     Number       Type             X           Y           Z
 ---------------------------------------------------------------------
      1          6           0        1.090134    1.772229    0.000000
      2          1           0        1.623298    0.844524    0.000000
      3          6           0        1.765408    2.947206    0.000000
      4          1           0        1.232245    3.874911    0.000000
      5          1           0        2.835408    2.947206    0.000000
      6          6           0       -0.449866    1.772229    0.000000
      7          1           0       -0.983030    2.699934    0.000000
      8          6           0       -1.132109    0.601284    0.000000
      9          1           0       -0.604467   -0.329572    0.000000
     10          1           0       -2.202091    0.607642    0.000000
 ---------------------------------------------------------------------
                    Distance matrix (angstroms):
                    1          2          3          4          5
     1  C    0.000000
     2  H    1.070000   0.000000
     3  C    1.355200   2.107479   0.000000
     4  H    2.107479   3.055514   1.070000   0.000000
     5  H    2.103938   2.427032   1.070000   1.852234   0.000000
     6  C    1.540000   2.271265   2.507591   2.692725   3.489068
     7  H    2.271265   3.199295   2.759539   2.507591   3.826436
     8  C    2.511867   2.766123   3.728131   4.038168   4.609181
     9  H    2.699859   2.518221   4.043956   4.588157   4.750791
    10  H    3.492135   3.832716   4.605932   4.740222   5.554274
                    6          7          8          9         10
     6  C    0.000000
     7  H    1.070000   0.000000
     8  C    1.355200   2.103938   0.000000
     9  H    2.107479   3.053066   1.070000   0.000000
    10  H    2.103938   2.421527   1.070000   1.852234   0.000000
 Symmetry turned off by external request.
 Stoichiometry    C4H6
 Framework group  CS[SG(C4H6)]
 Deg. of freedom    17
 Full point group                 CS      NOp   2
 Rotational constants (GHZ):          38.8125632           4.3599464           3.9196400
 Leave Link  202 at Thu Jun  1 09:10:06 2023, MaxMem=  3145728000 cpu:               0.2 elap:               0.0
 (Enter /share/apps/g16/E6B-113X_avx2/g16/l301.exe)
 Standard basis: def2SVP (5D, 7F)
 Ernie: Thresh=  0.10000D-02 Tol=  0.10000D-05 Strict=F.
    86 basis functions,   142 primitive gaussians,    90 cartesian basis functions
    15 alpha electrons       15 beta electrons
       nuclear repulsion energy       102.4963782326 Hartrees.
 IExCor= 4639 DFT=T Ex+Corr=wB97XD ExCW=0 ScaHFX=  1.000000
 ScaDFX=  1.000000  1.000000  1.000000  1.000000 ScalE2=  1.000000  1.000000
 IRadAn=      5 IRanWt=     -1 IRanGd=            0 ICorTp=0 IEmpDi=121
 HFx  wShort=  0.000000 wLong=  0.200000 cFull=  0.222036 cShort=  0.000000 cLong=  0.777964
 DFx  wShort=  0.000000 wLong=  0.200000 cFull=  0.000000 cShort=  0.000000 cLong=  1.000000
 NAtoms=   10 NActive=   10 NUniq=   10 SFac= 1.00D+00 NAtFMM=   60 NAOKFM=F Big=F
 Integral buffers will be    131072 words long.
 Raffenetti 2 integral format.
 Two-electron integral symmetry is turned off.
 R6Disp:  Grimme-D2 Dispersion energy=       -0.0028816820 Hartrees.
 Nuclear repulsion after empirical dispersion term =      102.4934965506 Hartrees.
 Leave Link  301 at Thu Jun  1 09:10:06 2023, MaxMem=  3145728000 cpu:               0.7 elap:               0.0
 (Enter /share/apps/g16/E6B-113X_avx2/g16/l302.exe)
 NPDir=0 NMtPBC=     1 NCelOv=     1 NCel=       1 NClECP=     1 NCelD=      1
         NCelK=      1 NCelE2=     1 NClLst=     1 CellRange=     0.0.
 One-electron integrals computed using PRISM.
   1 Symmetry operations used in ECPInt.
 ECPInt:  NShTT=     903 NPrTT=    3151 LenC2=     903 LenP2D=    2757.
 LDataN:  DoStor=T MaxTD1= 4 Len=   56
 NBasis=    86 RedAO= T EigKep=  2.12D-03  NBF=    86
 NBsUse=    86 1.00D-06 EigRej= -1.00D+00 NBFU=    86
 Precomputing XC quadrature grid using
 IXCGrd= 4 IRadAn=           5 IRanWt=          -1 IRanGd=           0 AccXCQ= 0.00D+00.
 Generated NRdTot=       0 NPtTot=           0 NUsed=           0 NTot=          32
 NSgBfM=    90    90    90    90    90 MxSgAt=    10 MxSgA2=    10.
 Leave Link  302 at Thu Jun  1 09:10:06 2023, MaxMem=  3145728000 cpu:               2.8 elap:               0.1
 (Enter /share/apps/g16/E6B-113X_avx2/g16/l303.exe)
 DipDrv:  MaxL=1.
 Leave Link  303 at Thu Jun  1 09:10:06 2023, MaxMem=  3145728000 cpu:               0.3 elap:               0.0
 (Enter /share/apps/g16/E6B-113X_avx2/g16/l401.exe)
 ExpMin= 1.22D-01 ExpMax= 1.24D+03 ExpMxC= 1.86D+02 IAcc=3 IRadAn=         5 AccDes= 0.00D+00
 Harris functional with IExCor= 4639 and IRadAn=       5 diagonalized for initial guess.
 HarFok:  IExCor= 4639 AccDes= 0.00D+00 IRadAn=         5 IDoV= 1 UseB2=F ITyADJ=14
 ICtDFT=  3500011 ScaDFX=  1.000000  1.000000  1.000000  1.000000
 FoFCou: FMM=F IPFlag=           0 FMFlag=      100000 FMFlg1=           0
         NFxFlg=           0 DoJE=T BraDBF=F KetDBF=T FulRan=T
         wScrn=  0.000000 ICntrl=       500 IOpCl=  0 I1Cent=   200000004 NGrid=           0
         NMat0=    1 NMatS0=      1 NMatT0=    0 NMatD0=    1 NMtDS0=    0 NMtDT0=    0
 Symmetry not used in FoFCou.
 Harris En= -148.323313577200    
 JPrj=0 DoOrth=F DoCkMO=F.
 Leave Link  401 at Thu Jun  1 09:10:06 2023, MaxMem=  3145728000 cpu:               5.7 elap:               0.3
 (Enter /share/apps/g16/E6B-113X_avx2/g16/l502.exe)
 Keep R1 ints in memory in canonical form, NReq=35911994.
 FoFCou: FMM=F IPFlag=           0 FMFlag=           0 FMFlg1=           0
         NFxFlg=           0 DoJE=F BraDBF=F KetDBF=F FulRan=T
         wScrn=  0.000000 ICntrl=       600 IOpCl=  0 I1Cent=           0 NGrid=           0
         NMat0=    1 NMatS0=   3741 NMatT0=    0 NMatD0=    1 NMtDS0=    0 NMtDT0=    0
 Symmetry not used in FoFCou.
 Two-electron integral symmetry not used.
 Closed shell SCF:
 Using DIIS extrapolation, IDIIS=  1040.
 NGot=  3145728000 LenX=  3131709906 LenY=  3131701365
 Requested convergence on RMS density matrix=1.00D-08 within 128 cycles.
 Requested convergence on MAX density matrix=1.00D-06.
 Requested convergence on             energy=1.00D-06.
 No special actions if energy rises.
 Integral accuracy reduced to 1.0D-05 until final iterations.

 Cycle   1  Pass 0  IDiag  1:
 E= -155.790608692858    
 DIIS: error= 3.00D-02 at cycle   1 NSaved=   1.
 NSaved= 1 IEnMin= 1 EnMin= -155.790608692858     IErMin= 1 ErrMin= 3.00D-02
 ErrMax= 3.00D-02  0.00D+00 EMaxC= 1.00D-01 BMatC= 6.28D-02 BMatP= 6.28D-02
 IDIUse=3 WtCom= 7.00D-01 WtEn= 3.00D-01
 Coeff-Com:  0.100D+01
 Coeff-En:   0.100D+01
 Coeff:      0.100D+01
 Gap=     0.349 Goal=   None    Shift=    0.000
 GapD=    0.349 DampG=1.000 DampE=0.500 DampFc=0.5000 IDamp=-1.
 Damping current iteration by 5.00D-01
 RMSDP=2.57D-03 MaxDP=3.09D-02              OVMax= 5.29D-02

 Cycle   2  Pass 0  IDiag  1:
 E= -155.802401136610     Delta-E=       -0.011792443752 Rises=F Damp=T
 DIIS: error= 1.51D-02 at cycle   2 NSaved=   2.
 NSaved= 2 IEnMin= 2 EnMin= -155.802401136610     IErMin= 2 ErrMin= 1.51D-02
 ErrMax= 1.51D-02  0.00D+00 EMaxC= 1.00D-01 BMatC= 1.49D-02 BMatP= 6.28D-02
 IDIUse=3 WtCom= 8.49D-01 WtEn= 1.51D-01
 Coeff-Com: -0.735D+00 0.173D+01
 Coeff-En:   0.000D+00 0.100D+01
 Coeff:     -0.624D+00 0.162D+01
 Gap=     0.354 Goal=   None    Shift=    0.000
 RMSDP=1.49D-03 MaxDP=2.01D-02 DE=-1.18D-02 OVMax= 3.91D-02

 Cycle   3  Pass 0  IDiag  1:
 E= -155.812094180872     Delta-E=       -0.009693044262 Rises=F Damp=F
 DIIS: error= 4.95D-03 at cycle   3 NSaved=   3.
 NSaved= 3 IEnMin= 3 EnMin= -155.812094180872     IErMin= 3 ErrMin= 4.95D-03
 ErrMax= 4.95D-03  0.00D+00 EMaxC= 1.00D-01 BMatC= 2.05D-03 BMatP= 1.49D-02
 IDIUse=3 WtCom= 9.50D-01 WtEn= 4.95D-02
 Coeff-Com: -0.369D+00 0.736D+00 0.633D+00
 Coeff-En:   0.000D+00 0.000D+00 0.100D+01
 Coeff:     -0.351D+00 0.700D+00 0.651D+00
 Gap=     0.355 Goal=   None    Shift=    0.000
 RMSDP=4.97D-04 MaxDP=9.29D-03 DE=-9.69D-03 OVMax= 1.90D-02

 Cycle   4  Pass 0  IDiag  1:
 E= -155.814040256452     Delta-E=       -0.001946075580 Rises=F Damp=F
 DIIS: error= 1.38D-03 at cycle   4 NSaved=   4.
 NSaved= 4 IEnMin= 4 EnMin= -155.814040256452     IErMin= 4 ErrMin= 1.38D-03
 ErrMax= 1.38D-03  0.00D+00 EMaxC= 1.00D-01 BMatC= 1.06D-04 BMatP= 2.05D-03
 IDIUse=3 WtCom= 9.86D-01 WtEn= 1.38D-02
 Coeff-Com: -0.125D+00 0.246D+00 0.293D+00 0.586D+00
 Coeff-En:   0.000D+00 0.000D+00 0.000D+00 0.100D+01
 Coeff:     -0.124D+00 0.243D+00 0.289D+00 0.592D+00
 Gap=     0.355 Goal=   None    Shift=    0.000
 RMSDP=1.05D-04 MaxDP=1.99D-03 DE=-1.95D-03 OVMax= 4.04D-03

 Cycle   5  Pass 0  IDiag  1:
 E= -155.814152410517     Delta-E=       -0.000112154065 Rises=F Damp=F
 DIIS: error= 1.41D-04 at cycle   5 NSaved=   5.
 NSaved= 5 IEnMin= 5 EnMin= -155.814152410517     IErMin= 5 ErrMin= 1.41D-04
 ErrMax= 1.41D-04  0.00D+00 EMaxC= 1.00D-01 BMatC= 8.36D-07 BMatP= 1.06D-04
 IDIUse=3 WtCom= 9.99D-01 WtEn= 1.41D-03
 Coeff-Com:  0.333D-01-0.666D-01-0.587D-01-0.466D-01 0.114D+01
 Coeff-En:   0.000D+00 0.000D+00 0.000D+00 0.000D+00 0.100D+01
 Coeff:      0.332D-01-0.665D-01-0.586D-01-0.465D-01 0.114D+01
 Gap=     0.355 Goal=   None    Shift=    0.000
 RMSDP=3.49D-05 MaxDP=3.99D-04 DE=-1.12D-04 OVMax= 1.24D-03

 Cycle   6  Pass 0  IDiag  1:
 E= -155.814155245565     Delta-E=       -0.000002835048 Rises=F Damp=F
 DIIS: error= 4.13D-05 at cycle   6 NSaved=   6.
 NSaved= 6 IEnMin= 6 EnMin= -155.814155245565     IErMin= 6 ErrMin= 4.13D-05
 ErrMax= 4.13D-05  0.00D+00 EMaxC= 1.00D-01 BMatC= 3.43D-08 BMatP= 8.36D-07
 IDIUse=1 WtCom= 1.00D+00 WtEn= 0.00D+00
 Coeff-Com:  0.627D-02-0.123D-01-0.140D-01-0.294D-01 0.522D-01 0.997D+00
 Coeff:      0.627D-02-0.123D-01-0.140D-01-0.294D-01 0.522D-01 0.997D+00
 Gap=     0.355 Goal=   None    Shift=    0.000
 RMSDP=5.80D-06 MaxDP=1.04D-04 DE=-2.84D-06 OVMax= 3.00D-04

 Initial convergence to 1.0D-05 achieved.  Increase integral accuracy.
 Cycle   7  Pass 1  IDiag  1:
 E= -155.814176294520     Delta-E=       -0.000021048955 Rises=F Damp=F
 DIIS: error= 2.89D-05 at cycle   1 NSaved=   1.
 NSaved= 1 IEnMin= 1 EnMin= -155.814176294520     IErMin= 1 ErrMin= 2.89D-05
 ErrMax= 2.89D-05  0.00D+00 EMaxC= 1.00D-01 BMatC= 6.32D-08 BMatP= 6.32D-08
 IDIUse=1 WtCom= 1.00D+00 WtEn= 0.00D+00
 Coeff-Com:  0.100D+01
 Coeff:      0.100D+01
 Gap=     0.355 Goal=   None    Shift=    0.000
 RMSDP=5.80D-06 MaxDP=1.04D-04 DE=-2.10D-05 OVMax= 6.69D-05

 Cycle   8  Pass 1  IDiag  1:
 E= -155.814176358366     Delta-E=       -0.000000063846 Rises=F Damp=F
 DIIS: error= 4.04D-06 at cycle   2 NSaved=   2.
 NSaved= 2 IEnMin= 2 EnMin= -155.814176358366     IErMin= 2 ErrMin= 4.04D-06
 ErrMax= 4.04D-06  0.00D+00 EMaxC= 1.00D-01 BMatC= 1.31D-09 BMatP= 6.32D-08
 IDIUse=1 WtCom= 1.00D+00 WtEn= 0.00D+00
 Coeff-Com: -0.838D-01 0.108D+01
 Coeff:     -0.838D-01 0.108D+01
 Gap=     0.355 Goal=   None    Shift=    0.000
 RMSDP=7.34D-07 MaxDP=1.05D-05 DE=-6.38D-08 OVMax= 2.80D-05

 Cycle   9  Pass 1  IDiag  1:
 E= -155.814176361110     Delta-E=       -0.000000002744 Rises=F Damp=F
 DIIS: error= 2.21D-06 at cycle   3 NSaved=   3.
 NSaved= 3 IEnMin= 3 EnMin= -155.814176361110     IErMin= 3 ErrMin= 2.21D-06
 ErrMax= 2.21D-06  0.00D+00 EMaxC= 1.00D-01 BMatC= 2.31D-10 BMatP= 1.31D-09
 IDIUse=1 WtCom= 1.00D+00 WtEn= 0.00D+00
 Coeff-Com: -0.378D-01 0.290D+00 0.748D+00
 Coeff:     -0.378D-01 0.290D+00 0.748D+00
 Gap=     0.355 Goal=   None    Shift=    0.000
 RMSDP=2.35D-07 MaxDP=4.11D-06 DE=-2.74D-09 OVMax= 1.14D-05

 Cycle  10  Pass 1  IDiag  1:
 E= -155.814176361421     Delta-E=       -0.000000000311 Rises=F Damp=F
 DIIS: error= 1.29D-06 at cycle   4 NSaved=   4.
 NSaved= 4 IEnMin= 4 EnMin= -155.814176361421     IErMin= 4 ErrMin= 1.29D-06
 ErrMax= 1.29D-06  0.00D+00 EMaxC= 1.00D-01 BMatC= 4.49D-11 BMatP= 2.31D-10
 IDIUse=1 WtCom= 1.00D+00 WtEn= 0.00D+00
 Coeff-Com: -0.263D-02-0.355D-01 0.249D+00 0.789D+00
 Coeff:     -0.263D-02-0.355D-01 0.249D+00 0.789D+00
 Gap=     0.355 Goal=   None    Shift=    0.000
 RMSDP=1.14D-07 MaxDP=1.61D-06 DE=-3.11D-10 OVMax= 6.03D-06

 Cycle  11  Pass 1  IDiag  1:
 E= -155.814176361496     Delta-E=       -0.000000000075 Rises=F Damp=F
 DIIS: error= 4.45D-07 at cycle   5 NSaved=   5.
 NSaved= 5 IEnMin= 5 EnMin= -155.814176361496     IErMin= 5 ErrMin= 4.45D-07
 ErrMax= 4.45D-07  0.00D+00 EMaxC= 1.00D-01 BMatC= 6.11D-12 BMatP= 4.49D-11
 IDIUse=1 WtCom= 1.00D+00 WtEn= 0.00D+00
 Coeff-Com:  0.482D-02-0.540D-01-0.396D-01 0.272D+00 0.817D+00
 Coeff:      0.482D-02-0.540D-01-0.396D-01 0.272D+00 0.817D+00
 Gap=     0.355 Goal=   None    Shift=    0.000
 RMSDP=5.34D-08 MaxDP=7.85D-07 DE=-7.46D-11 OVMax= 2.94D-06

 Cycle  12  Pass 1  IDiag  1:
 E= -155.814176361508     Delta-E=       -0.000000000012 Rises=F Damp=F
 DIIS: error= 1.04D-07 at cycle   6 NSaved=   6.
 NSaved= 6 IEnMin= 6 EnMin= -155.814176361508     IErMin= 6 ErrMin= 1.04D-07
 ErrMax= 1.04D-07  0.00D+00 EMaxC= 1.00D-01 BMatC= 3.93D-13 BMatP= 6.11D-12
 IDIUse=1 WtCom= 1.00D+00 WtEn= 0.00D+00
 Coeff-Com:  0.136D-02-0.931D-02-0.342D-01-0.834D-02 0.208D+00 0.842D+00
 Coeff:      0.136D-02-0.931D-02-0.342D-01-0.834D-02 0.208D+00 0.842D+00
 Gap=     0.355 Goal=   None    Shift=    0.000
 RMSDP=1.31D-08 MaxDP=2.15D-07 DE=-1.21D-11 OVMax= 5.96D-07

 Cycle  13  Pass 1  IDiag  1:
 E= -155.814176361509     Delta-E=       -0.000000000001 Rises=F Damp=F
 DIIS: error= 1.74D-08 at cycle   7 NSaved=   7.
 NSaved= 7 IEnMin= 7 EnMin= -155.814176361509     IErMin= 7 ErrMin= 1.74D-08
 ErrMax= 1.74D-08  0.00D+00 EMaxC= 1.00D-01 BMatC= 1.65D-14 BMatP= 3.93D-13
 IDIUse=1 WtCom= 1.00D+00 WtEn= 0.00D+00
 Coeff-Com: -0.215D-03 0.308D-02-0.176D-02-0.228D-01-0.331D-01 0.945D-01
 Coeff-Com:  0.960D+00
 Coeff:     -0.215D-03 0.308D-02-0.176D-02-0.228D-01-0.331D-01 0.945D-01
 Coeff:      0.960D+00
 Gap=     0.355 Goal=   None    Shift=    0.000
 RMSDP=3.35D-09 MaxDP=5.48D-08 DE=-1.19D-12 OVMax= 1.63D-07

 SCF Done:  E(RwB97XD) =  -155.814176362     A.U. after   13 cycles
            NFock= 13  Conv=0.34D-08     -V/T= 2.0125
 KE= 1.538909017419D+02 PE=-5.646192329686D+02 EE= 1.524206583145D+02
 Leave Link  502 at Thu Jun  1 09:10:08 2023, MaxMem=  3145728000 cpu:              36.1 elap:               1.6
 (Enter /share/apps/g16/E6B-113X_avx2/g16/l601.exe)
 Copying SCF densities to generalized density rwf, IOpCl= 0 IROHF=0.

 **********************************************************************

            Population analysis using the SCF density.

 **********************************************************************

 Alpha  occ. eigenvalues --  -10.31164 -10.31143 -10.29647 -10.29627  -0.88897
 Alpha  occ. eigenvalues --   -0.82448  -0.68558  -0.64741  -0.55560  -0.54848
 Alpha  occ. eigenvalues --   -0.47814  -0.47596  -0.43046  -0.40338  -0.31305
 Alpha virt. eigenvalues --    0.04227   0.13459   0.16544   0.17216   0.17918
 Alpha virt. eigenvalues --    0.23154   0.23763   0.24344   0.35369   0.38226
 Alpha virt. eigenvalues --    0.43444   0.47174   0.48233   0.51979   0.52543
 Alpha virt. eigenvalues --    0.56400   0.61121   0.61388   0.62472   0.67551
 Alpha virt. eigenvalues --    0.70402   0.74201   0.75154   0.75666   0.76459
 Alpha virt. eigenvalues --    0.79175   0.80096   0.85277   0.88257   0.92732
 Alpha virt. eigenvalues --    1.07116   1.22056   1.23906   1.25767   1.28566
 Alpha virt. eigenvalues --    1.32809   1.34119   1.39178   1.64438   1.67360
 Alpha virt. eigenvalues --    1.68995   1.73690   1.74863   1.80763   1.85154
 Alpha virt. eigenvalues --    1.85560   1.87417   1.88297   1.95953   2.00396
 Alpha virt. eigenvalues --    2.10498   2.13079   2.17359   2.17479   2.23073
 Alpha virt. eigenvalues --    2.36858   2.39175   2.40193   2.45601   2.46175
 Alpha virt. eigenvalues --    2.55539   2.58927   2.67030   2.81145   2.83491
 Alpha virt. eigenvalues --    2.91610   2.93037   3.10840   3.11434   3.38417
 Alpha virt. eigenvalues --    3.43571
          Condensed to atoms (all electrons):
               1          2          3          4          5          6
     1  C    4.778661   0.414287   0.647964  -0.018424  -0.014499   0.345994
     2  H    0.414287   0.642345  -0.036374   0.007677  -0.012722  -0.044061
     3  C    0.647964  -0.036374   4.705009   0.399589   0.390505  -0.047209
     4  H   -0.018424   0.007677   0.399589   0.628171  -0.042181  -0.019698
     5  H   -0.014499  -0.012722   0.390505  -0.042181   0.624725   0.008172
     6  C    0.345994  -0.044061  -0.047209  -0.019698   0.008172   4.779279
     7  H   -0.044387   0.004777  -0.006124   0.003808   0.000087   0.414298
     8  C   -0.047244  -0.006099   0.006716   0.001046  -0.000526   0.648298
     9  H   -0.019668   0.003824   0.001022  -0.000018   0.000004  -0.018375
    10  H    0.008180   0.000074  -0.000523   0.000004   0.000010  -0.014261
               7          8          9         10
     1  C   -0.044387  -0.047244  -0.019668   0.008180
     2  H    0.004777  -0.006099   0.003824   0.000074
     3  C   -0.006124   0.006716   0.001022  -0.000523
     4  H    0.003808   0.001046  -0.000018   0.000004
     5  H    0.000087  -0.000526   0.000004   0.000010
     6  C    0.414298   0.648298  -0.018375  -0.014261
     7  H    0.643167  -0.036391   0.007745  -0.012931
     8  C   -0.036391   4.705225   0.399408   0.390480
     9  H    0.007745   0.399408   0.628638  -0.042235
    10  H   -0.012931   0.390480  -0.042235   0.624745
 Mulliken charges:
               1
     1  C   -0.050864
     2  H    0.026270
     3  C   -0.060573
     4  H    0.040027
     5  H    0.046426
     6  C   -0.052437
     7  H    0.025952
     8  C   -0.060912
     9  H    0.039655
    10  H    0.046456
 Sum of Mulliken charges =   0.00000
 Mulliken charges with hydrogens summed into heavy atoms:
               1
     1  C   -0.024594
     3  C    0.025879
     6  C   -0.026485
     8  C    0.025200
 Electronic spatial extent (au):  <R**2>=            688.0292
 Charge=              0.0000 electrons
 Dipole moment (field-independent basis, Debye):
    X=              0.0038    Y=              0.0022    Z=              0.0000  Tot=              0.0043
 Quadrupole moment (field-independent basis, Debye-Ang):
   XX=            -22.8364   YY=            -22.7523   ZZ=            -28.3927
   XY=             -0.4015   XZ=              0.0000   YZ=              0.0000
 Traceless Quadrupole moment (field-independent basis, Debye-Ang):
   XX=              1.8241   YY=              1.9082   ZZ=             -3.7322
   XY=             -0.4015   XZ=              0.0000   YZ=              0.0000
 Octapole moment (field-independent basis, Debye-Ang**2):
  XXX=            -21.8015  YYY=           -121.0625  ZZZ=              0.0000  XYY=             -8.6582
  XXY=            -40.7507  XXZ=              0.0000  XZZ=             -9.0281  YZZ=            -50.3492
  YYZ=              0.0000  XYZ=              0.0000
 Hexadecapole moment (field-independent basis, Debye-Ang**3):
 XXXX=           -257.9152 YYYY=           -587.6451 ZZZZ=            -31.2490 XXXY=           -102.4499
 XXXZ=              0.0000 YYYX=           -111.5606 YYYZ=              0.0000 ZZZX=              0.0000
 ZZZY=              0.0000 XXYY=           -145.3706 XXZZ=            -58.5787 YYZZ=           -125.2775
 XXYZ=              0.0000 YYXZ=              0.0000 ZZXY=            -42.1013
 N-N= 1.024934965506D+02 E-N=-5.646192331786D+02  KE= 1.538909017419D+02
 No NMR shielding tensors so no spin-rotation constants.
 Leave Link  601 at Thu Jun  1 09:10:08 2023, MaxMem=  3145728000 cpu:               2.1 elap:               0.1
 (Enter /share/apps/g16/E6B-113X_avx2/g16/l701.exe)
 ... and contract with generalized density number  0.
 Compute integral first derivatives.
 R6Disp: Adding Grimme-D2 dispersion energy 1st derivatives to the gradient.
   1 Symmetry operations used in ECPInt.
 ECPInt:  NShTT=     903 NPrTT=    3151 LenC2=     903 LenP2D=    2757.
 LDataN:  DoStor=T MaxTD1= 5 Len=  102
 Leave Link  701 at Thu Jun  1 09:10:08 2023, MaxMem=  3145728000 cpu:               2.7 elap:               0.1
 (Enter /share/apps/g16/E6B-113X_avx2/g16/l702.exe)
 L702 exits ... SP integral derivatives will be done elsewhere.
 Leave Link  702 at Thu Jun  1 09:10:08 2023, MaxMem=  3145728000 cpu:               1.1 elap:               0.1
 (Enter /share/apps/g16/E6B-113X_avx2/g16/l703.exe)
 Integral derivatives from FoFJK, PRISM(SPDF).
 Compute integral first derivatives, UseDBF=F ICtDFT=           0.
 Calling FoFJK, ICntrl=      2127 FMM=F ISym2X=0 I1Cent= 0 IOpClX= 0 NMat=1 NMatS=1 NMatT=0.
 FoFJK:  IHMeth= 1 ICntrl=    2127 DoSepK=T KAlg= 0 I1Cent=           0 FoldK=F
 IRaf=         1 NMat=       1 IRICut=       1 DoRegI=T DoRafI=F ISym2E= 0 IDoP0=0 IntGTp=1.
 FoFCou: FMM=F IPFlag=           0 FMFlag=      100000 FMFlg1=         800
         NFxFlg=           0 DoJE=F BraDBF=F KetDBF=F FulRan=T
         wScrn=  0.000000 ICntrl=      2527 IOpCl=  0 I1Cent=           0 NGrid=           0
         NMat0=    1 NMatS0=      1 NMatT0=    0 NMatD0=    1 NMtDS0=    0 NMtDT0=    0
 Symmetry not used in FoFCou.
 Leave Link  703 at Thu Jun  1 09:10:09 2023, MaxMem=  3145728000 cpu:              16.0 elap:               0.7
 (Enter /share/apps/g16/E6B-113X_avx2/g16/l716.exe)
 Dipole        = 1.47661043D-03 8.54487527D-04-1.68461339D-15
 -------------------------------------------------------------------
 Center     Atomic                   Forces (Hartrees/Bohr)
 Number     Number              X              Y              Z
 -------------------------------------------------------------------
      1        6          -0.040983871    0.050622037    0.000000000
      2        1           0.004493337   -0.017349380    0.000000000
      3        6          -0.015336594   -0.038383400    0.000000000
      4        1          -0.005900826    0.015951802    0.000000000
      5        1           0.016498114    0.003615071    0.000000000
      6        6           0.039915435   -0.050478100    0.000000000
      7        1          -0.004199067    0.017607999    0.000000000
      8        6           0.016206188    0.037942229    0.000000000
      9        1           0.005792465   -0.016055362    0.000000000
     10        1          -0.016485180   -0.003472895    0.000000000
 -------------------------------------------------------------------
 Cartesian Forces:  Max     0.050622037 RMS     0.021286028
 Leave Link  716 at Thu Jun  1 09:10:09 2023, MaxMem=  3145728000 cpu:               1.0 elap:               0.1
 (Enter /share/apps/g16/E6B-113X_avx2/g16/l103.exe)

 GradGradGradGradGradGradGradGradGradGradGradGradGradGradGradGradGradGrad
 Berny optimization.
 FormGI is forming the generalized inverse of G from B-inverse, IUseBI=4.
 Internal  Forces:  Max     0.041227826 RMS     0.011816188
 Search for a local minimum.
 Step number   1 out of a maximum of   43
 All quantities printed in internal units (Hartrees-Bohrs-Radians)
 RMS Force = .11816D-01 SwitMx=.10000D-02 MixMth= 1
 Mixed Optimization -- RFO/linear search
 Second derivative matrix not updated -- first step.
 ITU=  0
     Eigenvalues ---    0.00237   0.01459   0.01463   0.02681   0.02681
     Eigenvalues ---    0.02681   0.02681   0.16000   0.16000   0.16000
     Eigenvalues ---    0.16000   0.16000   0.16000   0.22000   0.22000
     Eigenvalues ---    0.28519   0.37230   0.37230   0.37230   0.37230
     Eigenvalues ---    0.37230   0.37230   0.53930   0.53930
 RFO step:  Lambda=-1.37542632D-02 EMin= 2.36824211D-03
 Linear search not attempted -- first point.
 Iteration  1 RMS(Cart)=  0.03508573 RMS(Int)=  0.00061861
 Iteration  2 RMS(Cart)=  0.00107787 RMS(Int)=  0.00000030
 Iteration  3 RMS(Cart)=  0.00000037 RMS(Int)=  0.00000000
 ITry= 1 IFail=0 DXMaxC= 9.35D-02 DCOld= 1.00D+10 DXMaxT= 3.00D-01 DXLimC= 3.00D+00 Rises=F
 Variable       Old X    -DE/DX   Delta X   Delta X   Delta X     New X
                                 (Linear)    (Quad)   (Total)
    R1        2.02201   0.01728   0.00000   0.04476   0.04476   2.06677
    R2        2.56096  -0.01868   0.00000  -0.03377  -0.03377   2.52719
    R3        2.91018  -0.04123   0.00000  -0.13791  -0.13791   2.77227
    R4        2.02201   0.01677   0.00000   0.04344   0.04344   2.06545
    R5        2.02201   0.01650   0.00000   0.04274   0.04274   2.06474
    R6        2.02201   0.01736   0.00000   0.04497   0.04497   2.06697
    R7        2.56096  -0.01869   0.00000  -0.03379  -0.03379   2.52717
    R8        2.02201   0.01682   0.00000   0.04358   0.04358   2.06558
    R9        2.02201   0.01646   0.00000   0.04265   0.04265   2.06466
    A1        2.09836  -0.00077   0.00000   0.00379   0.00379   2.10215
    A2        2.09241  -0.01038   0.00000  -0.05148  -0.05148   2.04093
    A3        2.09241   0.01115   0.00000   0.04769   0.04769   2.14011
    A4        2.09836   0.00138   0.00000   0.00796   0.00796   2.10632
    A5        2.09241   0.00296   0.00000   0.01704   0.01704   2.10946
    A6        2.09241  -0.00435   0.00000  -0.02501  -0.02501   2.06741
    A7        2.09241  -0.01031   0.00000  -0.05175  -0.05175   2.04066
    A8        2.09836   0.01023   0.00000   0.04376   0.04376   2.14212
    A9        2.09241   0.00008   0.00000   0.00799   0.00799   2.10041
   A10        2.09836   0.00147   0.00000   0.00849   0.00849   2.10684
   A11        2.09241   0.00287   0.00000   0.01652   0.01652   2.10894
   A12        2.09241  -0.00435   0.00000  -0.02501  -0.02501   2.06740
    D1        3.14159   0.00000   0.00000   0.00000   0.00000   3.14159
    D2        0.00000   0.00000   0.00000   0.00000   0.00000   0.00000
    D3        0.00000   0.00000   0.00000   0.00000   0.00000   0.00000
    D4        3.14159   0.00000   0.00000   0.00000   0.00000   3.14159
    D5        3.14159   0.00000   0.00000   0.00000   0.00000   3.14159
    D6        0.00000   0.00000   0.00000   0.00000   0.00000   0.00000
    D7        0.00000   0.00000   0.00000   0.00000   0.00000   0.00000
    D8        3.14159   0.00000   0.00000   0.00000   0.00000   3.14159
    D9        0.00000   0.00000   0.00000   0.00000   0.00000   0.00000
   D10        3.14159   0.00000   0.00000   0.00000   0.00000   3.14159
   D11        3.14159   0.00000   0.00000   0.00000   0.00000   3.14159
   D12        0.00000   0.00000   0.00000   0.00000   0.00000   0.00000
         Item               Value     Threshold  Converged?
 Maximum Force            0.041228     0.000450     NO 
 RMS     Force            0.011816     0.000300     NO 
 Maximum Displacement     0.093508     0.001800     NO 
 RMS     Displacement     0.035509     0.001200     NO 
 Predicted change in Energy=-7.181824D-03
 Lowest energy point so far.  Saving SCF results.
 GradGradGradGradGradGradGradGradGradGradGradGradGradGradGradGradGradGrad

 Leave Link  103 at Thu Jun  1 09:10:09 2023, MaxMem=  3145728000 cpu:               5.0 elap:               0.3
 (Enter /share/apps/g16/E6B-113X_avx2/g16/l202.exe)
                          Input orientation:                          
 ---------------------------------------------------------------------
 Center     Atomic      Atomic             Coordinates (Angstroms)
 Number     Number       Type             X           Y           Z
 ---------------------------------------------------------------------
      1          6           0        1.051627    1.793436    0.000000
      2          1           0        1.573815    0.832461    0.000000
      3          6           0        1.741130    2.939314    0.000000
      4          1           0        1.223286    3.901841    0.000000
      5          1           0        2.833740    2.936011    0.000000
      6          6           0       -0.414834    1.752919    0.000000
      7          1           0       -0.936814    2.714128    0.000000
      8          6           0       -1.106634    0.608439    0.000000
      9          1           0       -0.591200   -0.355463    0.000000
     10          1           0       -2.199187    0.614508    0.000000
 ---------------------------------------------------------------------
                    Distance matrix (angstroms):
                    1          2          3          4          5
     1  C    0.000000
     2  H    1.093688   0.000000
     3  C    1.337329   2.113486   0.000000
     4  H    2.115381   3.089330   1.092987   0.000000
     5  H    2.116932   2.452006   1.092615   1.877869   0.000000
     6  C    1.467020   2.191339   2.460836   2.702092   3.457302
     7  H    2.191249   3.137504   2.687395   2.465095   3.777077
     8  C    2.462176   2.689795   3.680046   4.034232   4.576477
     9  H    2.704931   2.469505   4.036746   4.627850   4.750159
    10  H    3.457985   3.779292   4.575021   4.745511   5.542538
                    6          7          8          9         10
     6  C    0.000000
     7  H    1.093795   0.000000
     8  C    1.337320   2.112526   0.000000
     9  H    2.115746   3.088987   1.093060   0.000000
    10  H    2.116576   2.449896   1.092569   1.877889   0.000000
 Symmetry turned off by external request.
 Stoichiometry    C4H6
 Framework group  CS[SG(C4H6)]
 Deg. of freedom    17
 Full point group                 CS      NOp   2
 Rotational constants (GHZ):          40.9161390           4.4703780           4.0300649
 Leave Link  202 at Thu Jun  1 09:10:09 2023, MaxMem=  3145728000 cpu:               0.4 elap:               0.0
 (Enter /share/apps/g16/E6B-113X_avx2/g16/l301.exe)
 Standard basis: def2SVP (5D, 7F)
 Ernie: Thresh=  0.10000D-02 Tol=  0.10000D-05 Strict=F.
    86 basis functions,   142 primitive gaussians,    90 cartesian basis functions
    15 alpha electrons       15 beta electrons
       nuclear repulsion energy       103.6207121391 Hartrees.
 IExCor= 4639 DFT=T Ex+Corr=wB97XD ExCW=0 ScaHFX=  1.000000
 ScaDFX=  1.000000  1.000000  1.000000  1.000000 ScalE2=  1.000000  1.000000
 IRadAn=      5 IRanWt=     -1 IRanGd=            0 ICorTp=0 IEmpDi=121
 HFx  wShort=  0.000000 wLong=  0.200000 cFull=  0.222036 cShort=  0.000000 cLong=  0.777964
 DFx  wShort=  0.000000 wLong=  0.200000 cFull=  0.000000 cShort=  0.000000 cLong=  1.000000
 NAtoms=   10 NActive=   10 NUniq=   10 SFac= 1.00D+00 NAtFMM=   60 NAOKFM=F Big=F
 Integral buffers will be    131072 words long.
 Raffenetti 2 integral format.
 Two-electron integral symmetry is turned off.
 R6Disp:  Grimme-D2 Dispersion energy=       -0.0028709017 Hartrees.
 Nuclear repulsion after empirical dispersion term =      103.6178412374 Hartrees.
 Leave Link  301 at Thu Jun  1 09:10:09 2023, MaxMem=  3145728000 cpu:               1.0 elap:               0.1
 (Enter /share/apps/g16/E6B-113X_avx2/g16/l302.exe)
 NPDir=0 NMtPBC=     1 NCelOv=     1 NCel=       1 NClECP=     1 NCelD=      1
         NCelK=      1 NCelE2=     1 NClLst=     1 CellRange=     0.0.
 One-electron integrals computed using PRISM.
   1 Symmetry operations used in ECPInt.
 ECPInt:  NShTT=     903 NPrTT=    3151 LenC2=     903 LenP2D=    2757.
 LDataN:  DoStor=T MaxTD1= 4 Len=   56
 NBasis=    86 RedAO= T EigKep=  1.82D-03  NBF=    86
 NBsUse=    86 1.00D-06 EigRej= -1.00D+00 NBFU=    86
 Precomputing XC quadrature grid using
 IXCGrd= 4 IRadAn=           5 IRanWt=          -1 IRanGd=           0 AccXCQ= 0.00D+00.
 Generated NRdTot=       0 NPtTot=           0 NUsed=           0 NTot=          32
 NSgBfM=    90    90    90    90    90 MxSgAt=    10 MxSgA2=    10.
 Leave Link  302 at Thu Jun  1 09:10:10 2023, MaxMem=  3145728000 cpu:               4.0 elap:               0.2
 (Enter /share/apps/g16/E6B-113X_avx2/g16/l303.exe)
 DipDrv:  MaxL=1.
 Leave Link  303 at Thu Jun  1 09:10:10 2023, MaxMem=  3145728000 cpu:               0.9 elap:               0.0
 (Enter /share/apps/g16/E6B-113X_avx2/g16/l401.exe)
 Initial guess from the checkpoint file:  "butene.chk"
 B after Tr=     0.013661   -0.002182    0.000000
         Rot=    0.999998    0.000000    0.000000   -0.002144 Ang=  -0.25 deg.
 Guess basis will be translated and rotated to current coordinates.
 JPrj=2 DoOrth=T DoCkMO=T.
 Generating alternative initial guess.
 ExpMin= 1.22D-01 ExpMax= 1.24D+03 ExpMxC= 1.86D+02 IAcc=2 IRadAn=         4 AccDes= 0.00D+00
 Harris functional with IExCor= 4639 and IRadAn=       4 diagonalized for initial guess.
 HarFok:  IExCor= 4639 AccDes= 0.00D+00 IRadAn=         4 IDoV= 1 UseB2=F ITyADJ=14
 ICtDFT=  3500011 ScaDFX=  1.000000  1.000000  1.000000  1.000000
 FoFCou: FMM=F IPFlag=           0 FMFlag=      100000 FMFlg1=           0
         NFxFlg=           0 DoJE=T BraDBF=F KetDBF=T FulRan=T
         wScrn=  0.000000 ICntrl=       500 IOpCl=  0 I1Cent=   200000004 NGrid=           0
         NMat0=    1 NMatS0=      1 NMatT0=    0 NMatD0=    1 NMtDS0=    0 NMtDT0=    0
 Symmetry not used in FoFCou.
 Harris En= -148.329665770615    
 Leave Link  401 at Thu Jun  1 09:10:10 2023, MaxMem=  3145728000 cpu:               5.6 elap:               0.3
 (Enter /share/apps/g16/E6B-113X_avx2/g16/l502.exe)
 Keep R1 ints in memory in canonical form, NReq=35911994.
 FoFCou: FMM=F IPFlag=           0 FMFlag=           0 FMFlg1=           0
         NFxFlg=           0 DoJE=F BraDBF=F KetDBF=F FulRan=T
         wScrn=  0.000000 ICntrl=       600 IOpCl=  0 I1Cent=           0 NGrid=           0
         NMat0=    1 NMatS0=   3741 NMatT0=    0 NMatD0=    1 NMtDS0=    0 NMtDT0=    0
 Symmetry not used in FoFCou.
 Two-electron integral symmetry not used.
 Closed shell SCF:
 Using DIIS extrapolation, IDIIS=  1040.
 NGot=  3145728000 LenX=  3131709906 LenY=  3131701365
 Requested convergence on RMS density matrix=1.00D-08 within 128 cycles.
 Requested convergence on MAX density matrix=1.00D-06.
 Requested convergence on             energy=1.00D-06.
 No special actions if energy rises.
 Integral accuracy reduced to 1.0D-05 until final iterations.

 Cycle   1  Pass 0  IDiag  1:
 E= -155.819509755483    
 DIIS: error= 3.54D-03 at cycle   1 NSaved=   1.
 NSaved= 1 IEnMin= 1 EnMin= -155.819509755483     IErMin= 1 ErrMin= 3.54D-03
 ErrMax= 3.54D-03  0.00D+00 EMaxC= 1.00D-01 BMatC= 1.46D-03 BMatP= 1.46D-03
 IDIUse=3 WtCom= 9.65D-01 WtEn= 3.54D-02
 Coeff-Com:  0.100D+01
 Coeff-En:   0.100D+01
 Coeff:      0.100D+01
 Gap=     0.733 Goal=   None    Shift=    0.000
 GapD=    0.733 DampG=2.000 DampE=1.000 DampFc=2.0000 IDamp=-1.
 RMSDP=6.99D-04 MaxDP=7.86D-03              OVMax= 1.52D-02

 Cycle   2  Pass 0  IDiag  1:
 E= -155.821476396915     Delta-E=       -0.001966641432 Rises=F Damp=F
 DIIS: error= 1.90D-03 at cycle   2 NSaved=   2.
 NSaved= 2 IEnMin= 2 EnMin= -155.821476396915     IErMin= 2 ErrMin= 1.90D-03
 ErrMax= 1.90D-03  0.00D+00 EMaxC= 1.00D-01 BMatC= 1.92D-04 BMatP= 1.46D-03
 IDIUse=3 WtCom= 9.81D-01 WtEn= 1.90D-02
 Coeff-Com:  0.116D+00 0.884D+00
 Coeff-En:   0.000D+00 0.100D+01
 Coeff:      0.114D+00 0.886D+00
 Gap=     0.354 Goal=   None    Shift=    0.000
 RMSDP=2.52D-04 MaxDP=3.96D-03 DE=-1.97D-03 OVMax= 9.28D-03

 Cycle   3  Pass 0  IDiag  1:
 E= -155.821585023965     Delta-E=       -0.000108627051 Rises=F Damp=F
 DIIS: error= 1.65D-03 at cycle   3 NSaved=   3.
 NSaved= 3 IEnMin= 3 EnMin= -155.821585023965     IErMin= 3 ErrMin= 1.65D-03
 ErrMax= 1.65D-03  0.00D+00 EMaxC= 1.00D-01 BMatC= 1.22D-04 BMatP= 1.92D-04
 IDIUse=3 WtCom= 9.84D-01 WtEn= 1.65D-02
 Coeff-Com: -0.655D-01 0.446D+00 0.619D+00
 Coeff-En:   0.000D+00 0.301D+00 0.699D+00
 Coeff:     -0.644D-01 0.444D+00 0.620D+00
 Gap=     0.354 Goal=   None    Shift=    0.000
 RMSDP=1.15D-04 MaxDP=2.23D-03 DE=-1.09D-04 OVMax= 5.04D-03

 Cycle   4  Pass 0  IDiag  1:
 E= -155.821712086252     Delta-E=       -0.000127062287 Rises=F Damp=F
 DIIS: error= 1.58D-04 at cycle   4 NSaved=   4.
 NSaved= 4 IEnMin= 4 EnMin= -155.821712086252     IErMin= 4 ErrMin= 1.58D-04
 ErrMax= 1.58D-04  0.00D+00 EMaxC= 1.00D-01 BMatC= 1.42D-06 BMatP= 1.22D-04
 IDIUse=3 WtCom= 9.98D-01 WtEn= 1.58D-03
 Coeff-Com: -0.131D-01 0.756D-02 0.929D-01 0.913D+00
 Coeff-En:   0.000D+00 0.000D+00 0.000D+00 0.100D+01
 Coeff:     -0.131D-01 0.755D-02 0.927D-01 0.913D+00
 Gap=     0.354 Goal=   None    Shift=    0.000
 RMSDP=2.00D-05 MaxDP=3.07D-04 DE=-1.27D-04 OVMax= 8.60D-04

 Cycle   5  Pass 0  IDiag  1:
 E= -155.821714232687     Delta-E=       -0.000002146434 Rises=F Damp=F
 DIIS: error= 4.06D-05 at cycle   5 NSaved=   5.
 NSaved= 5 IEnMin= 5 EnMin= -155.821714232687     IErMin= 5 ErrMin= 4.06D-05
 ErrMax= 4.06D-05  0.00D+00 EMaxC= 1.00D-01 BMatC= 1.21D-07 BMatP= 1.42D-06
 IDIUse=1 WtCom= 1.00D+00 WtEn= 0.00D+00
 Coeff-Com:  0.159D-02-0.273D-01-0.154D-01 0.229D+00 0.812D+00
 Coeff:      0.159D-02-0.273D-01-0.154D-01 0.229D+00 0.812D+00
 Gap=     0.354 Goal=   None    Shift=    0.000
 RMSDP=6.66D-06 MaxDP=7.69D-05 DE=-2.15D-06 OVMax= 2.15D-04

 Initial convergence to 1.0D-05 achieved.  Increase integral accuracy.
 Cycle   6  Pass 1  IDiag  1:
 E= -155.821728774384     Delta-E=       -0.000014541697 Rises=F Damp=F
 DIIS: error= 2.94D-05 at cycle   1 NSaved=   1.
 NSaved= 1 IEnMin= 1 EnMin= -155.821728774384     IErMin= 1 ErrMin= 2.94D-05
 ErrMax= 2.94D-05  0.00D+00 EMaxC= 1.00D-01 BMatC= 7.23D-08 BMatP= 7.23D-08
 IDIUse=1 WtCom= 1.00D+00 WtEn= 0.00D+00
 Coeff-Com:  0.100D+01
 Coeff:      0.100D+01
 Gap=     0.354 Goal=   None    Shift=    0.000
 RMSDP=6.66D-06 MaxDP=7.69D-05 DE=-1.45D-05 OVMax= 7.94D-05

 Cycle   7  Pass 1  IDiag  1:
 E= -155.821728851445     Delta-E=       -0.000000077062 Rises=F Damp=F
 DIIS: error= 4.62D-06 at cycle   2 NSaved=   2.
 NSaved= 2 IEnMin= 2 EnMin= -155.821728851445     IErMin= 2 ErrMin= 4.62D-06
 ErrMax= 4.62D-06  0.00D+00 EMaxC= 1.00D-01 BMatC= 1.96D-09 BMatP= 7.23D-08
 IDIUse=1 WtCom= 1.00D+00 WtEn= 0.00D+00
 Coeff-Com: -0.763D-01 0.108D+01
 Coeff:     -0.763D-01 0.108D+01
 Gap=     0.354 Goal=   None    Shift=    0.000
 RMSDP=1.05D-06 MaxDP=1.29D-05 DE=-7.71D-08 OVMax= 3.60D-05

 Cycle   8  Pass 1  IDiag  1:
 E= -155.821728855220     Delta-E=       -0.000000003775 Rises=F Damp=F
 DIIS: error= 3.30D-06 at cycle   3 NSaved=   3.
 NSaved= 3 IEnMin= 3 EnMin= -155.821728855220     IErMin= 3 ErrMin= 3.30D-06
 ErrMax= 3.30D-06  0.00D+00 EMaxC= 1.00D-01 BMatC= 5.43D-10 BMatP= 1.96D-09
 IDIUse=1 WtCom= 1.00D+00 WtEn= 0.00D+00
 Coeff-Com: -0.482D-01 0.363D+00 0.685D+00
 Coeff:     -0.482D-01 0.363D+00 0.685D+00
 Gap=     0.354 Goal=   None    Shift=    0.000
 RMSDP=3.14D-07 MaxDP=5.66D-06 DE=-3.78D-09 OVMax= 1.28D-05

 Cycle   9  Pass 1  IDiag  1:
 E= -155.821728855938     Delta-E=       -0.000000000718 Rises=F Damp=F
 DIIS: error= 1.09D-06 at cycle   4 NSaved=   4.
 NSaved= 4 IEnMin= 4 EnMin= -155.821728855938     IErMin= 4 ErrMin= 1.09D-06
 ErrMax= 1.09D-06  0.00D+00 EMaxC= 1.00D-01 BMatC= 4.12D-11 BMatP= 5.43D-10
 IDIUse=1 WtCom= 1.00D+00 WtEn= 0.00D+00
 Coeff-Com: -0.184D-02-0.323D-01 0.122D+00 0.912D+00
 Coeff:     -0.184D-02-0.323D-01 0.122D+00 0.912D+00
 Gap=     0.354 Goal=   None    Shift=    0.000
 RMSDP=1.56D-07 MaxDP=2.07D-06 DE=-7.18D-10 OVMax= 7.57D-06

 Cycle  10  Pass 1  IDiag  1:
 E= -155.821728856021     Delta-E=       -0.000000000083 Rises=F Damp=F
 DIIS: error= 7.71D-07 at cycle   5 NSaved=   5.
 NSaved= 5 IEnMin= 5 EnMin= -155.821728856021     IErMin= 5 ErrMin= 7.71D-07
 ErrMax= 7.71D-07  0.00D+00 EMaxC= 1.00D-01 BMatC= 1.51D-11 BMatP= 4.12D-11
 IDIUse=1 WtCom= 1.00D+00 WtEn= 0.00D+00
 Coeff-Com:  0.691D-02-0.734D-01-0.522D-01 0.440D+00 0.679D+00
 Coeff:      0.691D-02-0.734D-01-0.522D-01 0.440D+00 0.679D+00
 Gap=     0.354 Goal=   None    Shift=    0.000
 RMSDP=5.42D-08 MaxDP=7.74D-07 DE=-8.28D-11 OVMax= 3.22D-06

 Cycle  11  Pass 1  IDiag  1:
 E= -155.821728856042     Delta-E=       -0.000000000022 Rises=F Damp=F
 DIIS: error= 8.97D-08 at cycle   6 NSaved=   6.
 NSaved= 6 IEnMin= 6 EnMin= -155.821728856042     IErMin= 6 ErrMin= 8.97D-08
 ErrMax= 8.97D-08  0.00D+00 EMaxC= 1.00D-01 BMatC= 2.18D-13 BMatP= 1.51D-11
 IDIUse=1 WtCom= 1.00D+00 WtEn= 0.00D+00
 Coeff-Com:  0.522D-03-0.107D-02-0.123D-01-0.540D-01 0.160D-01 0.105D+01
 Coeff:      0.522D-03-0.107D-02-0.123D-01-0.540D-01 0.160D-01 0.105D+01
 Gap=     0.354 Goal=   None    Shift=    0.000
 RMSDP=1.52D-08 MaxDP=2.71D-07 DE=-2.17D-11 OVMax= 7.56D-07

 Cycle  12  Pass 1  IDiag  1:
 E= -155.821728856044     Delta-E=       -0.000000000001 Rises=F Damp=F
 DIIS: error= 1.24D-08 at cycle   7 NSaved=   7.
 NSaved= 7 IEnMin= 7 EnMin= -155.821728856044     IErMin= 7 ErrMin= 1.24D-08
 ErrMax= 1.24D-08  0.00D+00 EMaxC= 1.00D-01 BMatC= 6.35D-15 BMatP= 2.18D-13
 IDIUse=1 WtCom= 1.00D+00 WtEn= 0.00D+00
 Coeff-Com: -0.300D-03 0.321D-02 0.235D-02-0.192D-01-0.284D-01-0.104D-01
 Coeff-Com:  0.105D+01
 Coeff:     -0.300D-03 0.321D-02 0.235D-02-0.192D-01-0.284D-01-0.104D-01
 Coeff:      0.105D+01
 Gap=     0.354 Goal=   None    Shift=    0.000
 RMSDP=2.88D-09 MaxDP=4.43D-08 DE=-1.42D-12 OVMax= 1.13D-07

 SCF Done:  E(RwB97XD) =  -155.821728856     A.U. after   12 cycles
            NFock= 12  Conv=0.29D-08     -V/T= 2.0124
 KE= 1.539201451386D+02 PE=-5.669006889335D+02 EE= 1.535409737015D+02
 Leave Link  502 at Thu Jun  1 09:10:12 2023, MaxMem=  3145728000 cpu:              36.3 elap:               1.8
 (Enter /share/apps/g16/E6B-113X_avx2/g16/l701.exe)
 ... and contract with generalized density number  0.
 Compute integral first derivatives.
 R6Disp: Adding Grimme-D2 dispersion energy 1st derivatives to the gradient.
   1 Symmetry operations used in ECPInt.
 ECPInt:  NShTT=     903 NPrTT=    3151 LenC2=     903 LenP2D=    2757.
 LDataN:  DoStor=T MaxTD1= 5 Len=  102
 Leave Link  701 at Thu Jun  1 09:10:12 2023, MaxMem=  3145728000 cpu:               3.4 elap:               0.2
 (Enter /share/apps/g16/E6B-113X_avx2/g16/l702.exe)
 L702 exits ... SP integral derivatives will be done elsewhere.
 Leave Link  702 at Thu Jun  1 09:10:12 2023, MaxMem=  3145728000 cpu:               0.6 elap:               0.0
 (Enter /share/apps/g16/E6B-113X_avx2/g16/l703.exe)
 Integral derivatives from FoFJK, PRISM(SPDF).
 Compute integral first derivatives, UseDBF=F ICtDFT=           0.
 Calling FoFJK, ICntrl=      2127 FMM=F ISym2X=0 I1Cent= 0 IOpClX= 0 NMat=1 NMatS=1 NMatT=0.
 FoFJK:  IHMeth= 1 ICntrl=    2127 DoSepK=T KAlg= 0 I1Cent=           0 FoldK=F
 IRaf=         1 NMat=       1 IRICut=       1 DoRegI=T DoRafI=F ISym2E= 0 IDoP0=0 IntGTp=1.
 FoFCou: FMM=F IPFlag=           0 FMFlag=      100000 FMFlg1=         800
         NFxFlg=           0 DoJE=F BraDBF=F KetDBF=F FulRan=T
         wScrn=  0.000000 ICntrl=      2527 IOpCl=  0 I1Cent=           0 NGrid=           0
         NMat0=    1 NMatS0=      1 NMatT0=    0 NMatD0=    1 NMtDS0=    0 NMtDT0=    0
 Symmetry not used in FoFCou.
 Leave Link  703 at Thu Jun  1 09:10:13 2023, MaxMem=  3145728000 cpu:              14.9 elap:               0.6
 (Enter /share/apps/g16/E6B-113X_avx2/g16/l716.exe)
 Dipole        = 4.73279133D-04 2.66017759D-04 1.73852641D-12
 -------------------------------------------------------------------
 Center     Atomic                   Forces (Hartrees/Bohr)
 Number     Number              X              Y              Z
 -------------------------------------------------------------------
      1        6          -0.005911906    0.006774973    0.000000000
      2        1           0.000822054   -0.001054430    0.000000000
      3        6           0.002956200   -0.003778526    0.000000000
      4        1           0.001185084    0.001283638    0.000000000
      5        1          -0.000278696    0.002080121    0.000000000
      6        6           0.005646273   -0.006688333    0.000000000
      7        1          -0.000720340    0.001054231    0.000000000
      8        6          -0.002754043    0.003663114    0.000000000
      9        1          -0.001189762   -0.001234687    0.000000000
     10        1           0.000245135   -0.002100101    0.000000000
 -------------------------------------------------------------------
 Cartesian Forces:  Max     0.006774973 RMS     0.002706595
 Leave Link  716 at Thu Jun  1 09:10:13 2023, MaxMem=  3145728000 cpu:               0.7 elap:               0.0
 (Enter /share/apps/g16/E6B-113X_avx2/g16/l103.exe)

 GradGradGradGradGradGradGradGradGradGradGradGradGradGradGradGradGradGrad
 Berny optimization.
 Using GEDIIS/GDIIS optimizer.
 FormGI is forming the generalized inverse of G from B-inverse, IUseBI=4.
 Internal  Forces:  Max     0.005204883 RMS     0.001808497
 Search for a local minimum.
 Step number   2 out of a maximum of   43
 All quantities printed in internal units (Hartrees-Bohrs-Radians)
 RMS Force = .18085D-02 SwitMx=.10000D-02 MixMth= 1
 Mixed Optimization -- RFO/linear search
 Update second derivatives using D2CorX and points    1    2
 DE= -7.55D-03 DEPred=-7.18D-03 R= 1.05D+00
 TightC=F SS=  1.41D+00  RLast= 2.10D-01 DXNew= 5.0454D-01 6.3146D-01
 Trust test= 1.05D+00 RLast= 2.10D-01 DXMaxT set to 5.05D-01
 ITU=  1  0
 Use linear search instead of GDIIS.
     Eigenvalues ---    0.00237   0.01499   0.01500   0.02681   0.02681
     Eigenvalues ---    0.02681   0.02681   0.15277   0.16000   0.16000
     Eigenvalues ---    0.16000   0.16000   0.16206   0.19978   0.22000
     Eigenvalues ---    0.29719   0.37038   0.37230   0.37230   0.37230
     Eigenvalues ---    0.37230   0.38298   0.53930   0.55641
 RFO step:  Lambda=-4.75901201D-04 EMin= 2.36824211D-03
 Quartic linear search produced a step of  0.07698.
 Iteration  1 RMS(Cart)=  0.01712767 RMS(Int)=  0.00009256
 Iteration  2 RMS(Cart)=  0.00014166 RMS(Int)=  0.00000000
 Iteration  3 RMS(Cart)=  0.00000000 RMS(Int)=  0.00000000
 ITry= 1 IFail=0 DXMaxC= 4.58D-02 DCOld= 1.00D+10 DXMaxT= 5.05D-01 DXLimC= 3.00D+00 Rises=F
 Variable       Old X    -DE/DX   Delta X   Delta X   Delta X     New X
                                 (Linear)    (Quad)   (Total)
    R1        2.06677   0.00132   0.00345   0.00154   0.00498   2.07175
    R2        2.52719   0.00164  -0.00260   0.00490   0.00230   2.52949
    R3        2.77227  -0.00108  -0.01062   0.00325  -0.00736   2.76490
    R4        2.06545   0.00057   0.00334  -0.00057   0.00278   2.06822
    R5        2.06474  -0.00028   0.00329  -0.00299   0.00030   2.06504
    R6        2.06697   0.00127   0.00346   0.00138   0.00485   2.07182
    R7        2.52717   0.00163  -0.00260   0.00490   0.00230   2.52946
    R8        2.06558   0.00053   0.00335  -0.00069   0.00266   2.06825
    R9        2.06466  -0.00026   0.00328  -0.00291   0.00037   2.06503
    A1        2.10215  -0.00283   0.00029  -0.01456  -0.01427   2.08788
    A2        2.04093  -0.00238  -0.00396  -0.00819  -0.01215   2.02878
    A3        2.14011   0.00520   0.00367   0.02276   0.02643   2.16653
    A4        2.10632   0.00084   0.00061   0.00519   0.00580   2.11212
    A5        2.10946   0.00172   0.00131   0.01053   0.01184   2.12130
    A6        2.06741  -0.00257  -0.00193  -0.01572  -0.01764   2.04976
    A7        2.04066  -0.00231  -0.00398  -0.00802  -0.01201   2.02865
    A8        2.14212   0.00489   0.00337   0.02146   0.02483   2.16694
    A9        2.10041  -0.00258   0.00062  -0.01343  -0.01282   2.08759
   A10        2.10684   0.00080   0.00065   0.00488   0.00553   2.11238
   A11        2.10894   0.00176   0.00127   0.01083   0.01211   2.12105
   A12        2.06740  -0.00257  -0.00193  -0.01571  -0.01764   2.04976
    D1        3.14159   0.00000   0.00000   0.00000   0.00000   3.14159
    D2        0.00000   0.00000   0.00000   0.00000   0.00000   0.00000
    D3        0.00000   0.00000   0.00000   0.00000   0.00000   0.00000
    D4        3.14159   0.00000   0.00000   0.00000   0.00000   3.14159
    D5        3.14159   0.00000   0.00000   0.00000   0.00000   3.14159
    D6        0.00000   0.00000   0.00000   0.00000   0.00000   0.00000
    D7        0.00000   0.00000   0.00000   0.00000   0.00000   0.00000
    D8        3.14159   0.00000   0.00000   0.00000   0.00000   3.14159
    D9        0.00000   0.00000   0.00000   0.00000   0.00000   0.00000
   D10        3.14159   0.00000   0.00000   0.00000   0.00000   3.14159
   D11        3.14159   0.00000   0.00000   0.00000   0.00000   3.14159
   D12        0.00000   0.00000   0.00000   0.00000   0.00000   0.00000
         Item               Value     Threshold  Converged?
 Maximum Force            0.005205     0.000450     NO 
 RMS     Force            0.001808     0.000300     NO 
 Maximum Displacement     0.045751     0.001800     NO 
 RMS     Displacement     0.017030     0.001200     NO 
 Predicted change in Energy=-2.869603D-04
 Lowest energy point so far.  Saving SCF results.
 GradGradGradGradGradGradGradGradGradGradGradGradGradGradGradGradGradGrad

 Leave Link  103 at Thu Jun  1 09:10:13 2023, MaxMem=  3145728000 cpu:               1.1 elap:               0.1
 (Enter /share/apps/g16/E6B-113X_avx2/g16/l202.exe)
                          Input orientation:                          
 ---------------------------------------------------------------------
 Center     Atomic      Atomic             Coordinates (Angstroms)
 Number     Number       Type             X           Y           Z
 ---------------------------------------------------------------------
      1          6           0        1.048547    1.805618    0.000000
      2          1           0        1.575817    0.844414    0.000000
      3          6           0        1.750453    2.945372    0.000000
      4          1           0        1.247496    3.917416    0.000000
      5          1           0        2.843223    2.943755    0.000000
      6          6           0       -0.413176    1.741625    0.000000
      7          1           0       -0.940346    2.702923    0.000000
      8          6           0       -1.115544    0.602172    0.000000
      9          1           0       -0.613232   -0.370219    0.000000
     10          1           0       -2.208308    0.604518    0.000000
 ---------------------------------------------------------------------
                    Distance matrix (angstroms):
                    1          2          3          4          5
     1  C    0.000000
     2  H    1.096324   0.000000
     3  C    1.338548   2.108203   0.000000
     4  H    2.121148   3.090491   1.094456   0.000000
     5  H    2.125140   2.452254   1.092772   1.869321   0.000000
     6  C    1.463123   2.181990   2.475944   2.737133   3.471204
     7  H    2.181937   3.128120   2.701699   2.502328   3.791226
     8  C    2.476201   2.702241   3.701962   4.071216   4.599440
     9  H    2.737841   2.503452   4.071873   4.673984   4.788477
    10  H    3.471274   3.791722   4.599063   4.787262   5.566866
                    6          7          8          9         10
     6  C    0.000000
     7  H    1.096359   0.000000
     8  C    1.338534   2.108045   0.000000
     9  H    2.121298   3.090503   1.094468   0.000000
    10  H    2.124973   2.451741   1.092767   1.869326   0.000000
 Symmetry turned off by external request.
 Stoichiometry    C4H6
 Framework group  CS[SG(C4H6)]
 Deg. of freedom    17
 Full point group                 CS      NOp   2
 Rotational constants (GHZ):          41.8292078           4.4120498           3.9910797
 Leave Link  202 at Thu Jun  1 09:10:13 2023, MaxMem=  3145728000 cpu:               0.2 elap:               0.0
 (Enter /share/apps/g16/E6B-113X_avx2/g16/l301.exe)
 Standard basis: def2SVP (5D, 7F)
 Ernie: Thresh=  0.10000D-02 Tol=  0.10000D-05 Strict=F.
    86 basis functions,   142 primitive gaussians,    90 cartesian basis functions
    15 alpha electrons       15 beta electrons
       nuclear repulsion energy       103.4081694082 Hartrees.
 IExCor= 4639 DFT=T Ex+Corr=wB97XD ExCW=0 ScaHFX=  1.000000
 ScaDFX=  1.000000  1.000000  1.000000  1.000000 ScalE2=  1.000000  1.000000
 IRadAn=      5 IRanWt=     -1 IRanGd=            0 ICorTp=0 IEmpDi=121
 HFx  wShort=  0.000000 wLong=  0.200000 cFull=  0.222036 cShort=  0.000000 cLong=  0.777964
 DFx  wShort=  0.000000 wLong=  0.200000 cFull=  0.000000 cShort=  0.000000 cLong=  1.000000
 NAtoms=   10 NActive=   10 NUniq=   10 SFac= 1.00D+00 NAtFMM=   60 NAOKFM=F Big=F
 Integral buffers will be    131072 words long.
 Raffenetti 2 integral format.
 Two-electron integral symmetry is turned off.
 R6Disp:  Grimme-D2 Dispersion energy=       -0.0028567545 Hartrees.
 Nuclear repulsion after empirical dispersion term =      103.4053126537 Hartrees.
 Leave Link  301 at Thu Jun  1 09:10:13 2023, MaxMem=  3145728000 cpu:               0.8 elap:               0.0
 (Enter /share/apps/g16/E6B-113X_avx2/g16/l302.exe)
 NPDir=0 NMtPBC=     1 NCelOv=     1 NCel=       1 NClECP=     1 NCelD=      1
         NCelK=      1 NCelE2=     1 NClLst=     1 CellRange=     0.0.
 One-electron integrals computed using PRISM.
   1 Symmetry operations used in ECPInt.
 ECPInt:  NShTT=     903 NPrTT=    3151 LenC2=     903 LenP2D=    2751.
 LDataN:  DoStor=T MaxTD1= 4 Len=   56
 NBasis=    86 RedAO= T EigKep=  1.85D-03  NBF=    86
 NBsUse=    86 1.00D-06 EigRej= -1.00D+00 NBFU=    86
 Precomputing XC quadrature grid using
 IXCGrd= 4 IRadAn=           5 IRanWt=          -1 IRanGd=           0 AccXCQ= 0.00D+00.
 Generated NRdTot=       0 NPtTot=           0 NUsed=           0 NTot=          32
 NSgBfM=    90    90    90    90    90 MxSgAt=    10 MxSgA2=    10.
 Leave Link  302 at Thu Jun  1 09:10:13 2023, MaxMem=  3145728000 cpu:               3.4 elap:               0.2
 (Enter /share/apps/g16/E6B-113X_avx2/g16/l303.exe)
 DipDrv:  MaxL=1.
 Leave Link  303 at Thu Jun  1 09:10:13 2023, MaxMem=  3145728000 cpu:               0.9 elap:               0.0
 (Enter /share/apps/g16/E6B-113X_avx2/g16/l401.exe)
 Initial guess from the checkpoint file:  "butene.chk"
 B after Tr=     0.002589   -0.000306    0.000000
         Rot=    1.000000    0.000000    0.000000   -0.000434 Ang=  -0.05 deg.
 Guess basis will be translated and rotated to current coordinates.
 JPrj=2 DoOrth=T DoCkMO=T.
 Generating alternative initial guess.
 ExpMin= 1.22D-01 ExpMax= 1.24D+03 ExpMxC= 1.86D+02 IAcc=2 IRadAn=         4 AccDes= 0.00D+00
 Harris functional with IExCor= 4639 and IRadAn=       4 diagonalized for initial guess.
 HarFok:  IExCor= 4639 AccDes= 0.00D+00 IRadAn=         4 IDoV= 1 UseB2=F ITyADJ=14
 ICtDFT=  3500011 ScaDFX=  1.000000  1.000000  1.000000  1.000000
 FoFCou: FMM=F IPFlag=           0 FMFlag=      100000 FMFlg1=           0
         NFxFlg=           0 DoJE=T BraDBF=F KetDBF=T FulRan=T
         wScrn=  0.000000 ICntrl=       500 IOpCl=  0 I1Cent=   200000004 NGrid=           0
         NMat0=    1 NMatS0=      1 NMatT0=    0 NMatD0=    1 NMtDS0=    0 NMtDT0=    0
 Symmetry not used in FoFCou.
 Harris En= -148.330282865375    
 Leave Link  401 at Thu Jun  1 09:10:13 2023, MaxMem=  3145728000 cpu:               5.8 elap:               0.3
 (Enter /share/apps/g16/E6B-113X_avx2/g16/l502.exe)
 Keep R1 ints in memory in canonical form, NReq=35911994.
 FoFCou: FMM=F IPFlag=           0 FMFlag=           0 FMFlg1=           0
         NFxFlg=           0 DoJE=F BraDBF=F KetDBF=F FulRan=T
         wScrn=  0.000000 ICntrl=       600 IOpCl=  0 I1Cent=           0 NGrid=           0
         NMat0=    1 NMatS0=   3741 NMatT0=    0 NMatD0=    1 NMtDS0=    0 NMtDT0=    0
 Symmetry not used in FoFCou.
 Two-electron integral symmetry not used.
 Closed shell SCF:
 Using DIIS extrapolation, IDIIS=  1040.
 NGot=  3145728000 LenX=  3131709906 LenY=  3131701365
 Requested convergence on RMS density matrix=1.00D-08 within 128 cycles.
 Requested convergence on MAX density matrix=1.00D-06.
 Requested convergence on             energy=1.00D-06.
 No special actions if energy rises.
 Integral accuracy reduced to 1.0D-05 until final iterations.

 Cycle   1  Pass 0  IDiag  1:
 E= -155.821879982635    
 DIIS: error= 8.36D-04 at cycle   1 NSaved=   1.
 NSaved= 1 IEnMin= 1 EnMin= -155.821879982635     IErMin= 1 ErrMin= 8.36D-04
 ErrMax= 8.36D-04  0.00D+00 EMaxC= 1.00D-01 BMatC= 8.03D-05 BMatP= 8.03D-05
 IDIUse=3 WtCom= 9.92D-01 WtEn= 8.36D-03
 Coeff-Com:  0.100D+01
 Coeff-En:   0.100D+01
 Coeff:      0.100D+01
 Gap=     0.733 Goal=   None    Shift=    0.000
 RMSDP=2.10D-04 MaxDP=2.24D-03              OVMax= 3.16D-03

 Cycle   2  Pass 0  IDiag  1:
 E= -155.821998252153     Delta-E=       -0.000118269518 Rises=F Damp=F
 DIIS: error= 1.86D-04 at cycle   2 NSaved=   2.
 NSaved= 2 IEnMin= 2 EnMin= -155.821998252153     IErMin= 2 ErrMin= 1.86D-04
 ErrMax= 1.86D-04  0.00D+00 EMaxC= 1.00D-01 BMatC= 2.66D-06 BMatP= 8.03D-05
 IDIUse=3 WtCom= 9.98D-01 WtEn= 1.86D-03
 Coeff-Com: -0.145D+00 0.115D+01
 Coeff-En:   0.000D+00 0.100D+01
 Coeff:     -0.145D+00 0.114D+01
 Gap=     0.352 Goal=   None    Shift=    0.000
 RMSDP=5.29D-05 MaxDP=5.49D-04 DE=-1.18D-04 OVMax= 8.88D-04

 Cycle   3  Pass 0  IDiag  1:
 E= -155.822003354892     Delta-E=       -0.000005102740 Rises=F Damp=F
 DIIS: error= 1.06D-04 at cycle   3 NSaved=   3.
 NSaved= 3 IEnMin= 3 EnMin= -155.822003354892     IErMin= 3 ErrMin= 1.06D-04
 ErrMax= 1.06D-04  0.00D+00 EMaxC= 1.00D-01 BMatC= 5.85D-07 BMatP= 2.66D-06
 IDIUse=3 WtCom= 9.99D-01 WtEn= 1.06D-03
 Coeff-Com: -0.661D-01 0.410D+00 0.656D+00
 Coeff-En:   0.000D+00 0.000D+00 0.100D+01
 Coeff:     -0.660D-01 0.410D+00 0.656D+00
 Gap=     0.352 Goal=   None    Shift=    0.000
 RMSDP=1.08D-05 MaxDP=1.76D-04 DE=-5.10D-06 OVMax= 3.88D-04

 Cycle   4  Pass 0  IDiag  1:
 E= -155.822003910194     Delta-E=       -0.000000555302 Rises=F Damp=F
 DIIS: error= 3.24D-05 at cycle   4 NSaved=   4.
 NSaved= 4 IEnMin= 4 EnMin= -155.822003910194     IErMin= 4 ErrMin= 3.24D-05
 ErrMax= 3.24D-05  0.00D+00 EMaxC= 1.00D-01 BMatC= 9.00D-08 BMatP= 5.85D-07
 IDIUse=1 WtCom= 1.00D+00 WtEn= 0.00D+00
 Coeff-Com:  0.236D-02-0.637D-01 0.255D+00 0.807D+00
 Coeff:      0.236D-02-0.637D-01 0.255D+00 0.807D+00
 Gap=     0.352 Goal=   None    Shift=    0.000
 RMSDP=5.39D-06 MaxDP=5.45D-05 DE=-5.55D-07 OVMax= 1.03D-04

 Initial convergence to 1.0D-05 achieved.  Increase integral accuracy.
 Cycle   5  Pass 1  IDiag  1:
 E= -155.822020292782     Delta-E=       -0.000016382588 Rises=F Damp=F
 DIIS: error= 2.84D-05 at cycle   1 NSaved=   1.
 NSaved= 1 IEnMin= 1 EnMin= -155.822020292782     IErMin= 1 ErrMin= 2.84D-05
 ErrMax= 2.84D-05  0.00D+00 EMaxC= 1.00D-01 BMatC= 6.94D-08 BMatP= 6.94D-08
 IDIUse=1 WtCom= 1.00D+00 WtEn= 0.00D+00
 Coeff-Com:  0.100D+01
 Coeff:      0.100D+01
 Gap=     0.352 Goal=   None    Shift=    0.000
 RMSDP=5.39D-06 MaxDP=5.45D-05 DE=-1.64D-05 OVMax= 5.04D-05

 Cycle   6  Pass 1  IDiag  1:
 E= -155.822020355381     Delta-E=       -0.000000062599 Rises=F Damp=F
 DIIS: error= 4.59D-06 at cycle   2 NSaved=   2.
 NSaved= 2 IEnMin= 2 EnMin= -155.822020355381     IErMin= 2 ErrMin= 4.59D-06
 ErrMax= 4.59D-06  0.00D+00 EMaxC= 1.00D-01 BMatC= 2.10D-09 BMatP= 6.94D-08
 IDIUse=1 WtCom= 1.00D+00 WtEn= 0.00D+00
 Coeff-Com: -0.590D-01 0.106D+01
 Coeff:     -0.590D-01 0.106D+01
 Gap=     0.352 Goal=   None    Shift=    0.000
 RMSDP=9.05D-07 MaxDP=1.65D-05 DE=-6.26D-08 OVMax= 2.35D-05

 Cycle   7  Pass 1  IDiag  1:
 E= -155.822020356483     Delta-E=       -0.000000001102 Rises=F Damp=F
 DIIS: error= 5.08D-06 at cycle   3 NSaved=   3.
 NSaved= 3 IEnMin= 3 EnMin= -155.822020356483     IErMin= 2 ErrMin= 4.59D-06
 ErrMax= 5.08D-06  0.00D+00 EMaxC= 1.00D-01 BMatC= 1.55D-09 BMatP= 2.10D-09
 IDIUse=1 WtCom= 1.00D+00 WtEn= 0.00D+00
 Coeff-Com: -0.559D-01 0.513D+00 0.543D+00
 Coeff:     -0.559D-01 0.513D+00 0.543D+00
 Gap=     0.352 Goal=   None    Shift=    0.000
 RMSDP=4.23D-07 MaxDP=8.30D-06 DE=-1.10D-09 OVMax= 1.46D-05

 Cycle   8  Pass 1  IDiag  1:
 E= -155.822020358061     Delta-E=       -0.000000001579 Rises=F Damp=F
 DIIS: error= 5.91D-07 at cycle   4 NSaved=   4.
 NSaved= 4 IEnMin= 4 EnMin= -155.822020358061     IErMin= 4 ErrMin= 5.91D-07
 ErrMax= 5.91D-07  0.00D+00 EMaxC= 1.00D-01 BMatC= 3.20D-11 BMatP= 1.55D-09
 IDIUse=1 WtCom= 1.00D+00 WtEn= 0.00D+00
 Coeff-Com: -0.909D-02 0.451D-01 0.130D+00 0.834D+00
 Coeff:     -0.909D-02 0.451D-01 0.130D+00 0.834D+00
 Gap=     0.352 Goal=   None    Shift=    0.000
 RMSDP=9.15D-08 MaxDP=1.49D-06 DE=-1.58D-09 OVMax= 1.84D-06

 Cycle   9  Pass 1  IDiag  1:
 E= -155.822020358095     Delta-E=       -0.000000000034 Rises=F Damp=F
 DIIS: error= 2.09D-07 at cycle   5 NSaved=   5.
 NSaved= 5 IEnMin= 5 EnMin= -155.822020358095     IErMin= 5 ErrMin= 2.09D-07
 ErrMax= 2.09D-07  0.00D+00 EMaxC= 1.00D-01 BMatC= 3.11D-12 BMatP= 3.20D-11
 IDIUse=1 WtCom= 1.00D+00 WtEn= 0.00D+00
 Coeff-Com:  0.339D-02-0.421D-01-0.175D-01 0.247D+00 0.810D+00
 Coeff:      0.339D-02-0.421D-01-0.175D-01 0.247D+00 0.810D+00
 Gap=     0.352 Goal=   None    Shift=    0.000
 RMSDP=3.52D-08 MaxDP=4.34D-07 DE=-3.36D-11 OVMax= 5.64D-07

 Cycle  10  Pass 1  IDiag  1:
 E= -155.822020358099     Delta-E=       -0.000000000004 Rises=F Damp=F
 DIIS: error= 1.65D-08 at cycle   6 NSaved=   6.
 NSaved= 6 IEnMin= 6 EnMin= -155.822020358099     IErMin= 6 ErrMin= 1.65D-08
 ErrMax= 1.65D-08  0.00D+00 EMaxC= 1.00D-01 BMatC= 2.72D-14 BMatP= 3.11D-12
 IDIUse=1 WtCom= 1.00D+00 WtEn= 0.00D+00
 Coeff-Com:  0.421D-03-0.313D-02-0.478D-02-0.165D-01 0.238D-01 0.100D+01
 Coeff:      0.421D-03-0.313D-02-0.478D-02-0.165D-01 0.238D-01 0.100D+01
 Gap=     0.352 Goal=   None    Shift=    0.000
 RMSDP=7.58D-09 MaxDP=8.70D-08 DE=-4.43D-12 OVMax= 1.18D-07

 SCF Done:  E(RwB97XD) =  -155.822020358     A.U. after   10 cycles
            NFock= 10  Conv=0.76D-08     -V/T= 2.0125
 KE= 1.539013835980D+02 PE=-5.664500153187D+02 EE= 1.533212987089D+02
 Leave Link  502 at Thu Jun  1 09:10:15 2023, MaxMem=  3145728000 cpu:              33.1 elap:               1.5
 (Enter /share/apps/g16/E6B-113X_avx2/g16/l701.exe)
 ... and contract with generalized density number  0.
 Compute integral first derivatives.
 R6Disp: Adding Grimme-D2 dispersion energy 1st derivatives to the gradient.
   1 Symmetry operations used in ECPInt.
 ECPInt:  NShTT=     903 NPrTT=    3151 LenC2=     903 LenP2D=    2751.
 LDataN:  DoStor=T MaxTD1= 5 Len=  102
 Leave Link  701 at Thu Jun  1 09:10:15 2023, MaxMem=  3145728000 cpu:               3.6 elap:               0.2
 (Enter /share/apps/g16/E6B-113X_avx2/g16/l702.exe)
 L702 exits ... SP integral derivatives will be done elsewhere.
 Leave Link  702 at Thu Jun  1 09:10:15 2023, MaxMem=  3145728000 cpu:               0.2 elap:               0.0
 (Enter /share/apps/g16/E6B-113X_avx2/g16/l703.exe)
 Integral derivatives from FoFJK, PRISM(SPDF).
 Compute integral first derivatives, UseDBF=F ICtDFT=           0.
 Calling FoFJK, ICntrl=      2127 FMM=F ISym2X=0 I1Cent= 0 IOpClX= 0 NMat=1 NMatS=1 NMatT=0.
 FoFJK:  IHMeth= 1 ICntrl=    2127 DoSepK=T KAlg= 0 I1Cent=           0 FoldK=F
 IRaf=         1 NMat=       1 IRICut=       1 DoRegI=T DoRafI=F ISym2E= 0 IDoP0=0 IntGTp=1.
 FoFCou: FMM=F IPFlag=           0 FMFlag=      100000 FMFlg1=         800
         NFxFlg=           0 DoJE=F BraDBF=F KetDBF=F FulRan=T
         wScrn=  0.000000 ICntrl=      2527 IOpCl=  0 I1Cent=           0 NGrid=           0
         NMat0=    1 NMatS0=      1 NMatT0=    0 NMatD0=    1 NMtDS0=    0 NMtDT0=    0
 Symmetry not used in FoFCou.
 Leave Link  703 at Thu Jun  1 09:10:16 2023, MaxMem=  3145728000 cpu:              14.7 elap:               0.6
 (Enter /share/apps/g16/E6B-113X_avx2/g16/l716.exe)
 Dipole        = 9.50429154D-05 4.99081591D-05-8.62055995D-10
 -------------------------------------------------------------------
 Center     Atomic                   Forces (Hartrees/Bohr)
 Number     Number              X              Y              Z
 -------------------------------------------------------------------
      1        6           0.000044167    0.000531242    0.000000000
      2        1           0.000389648    0.000087195    0.000000000
      3        6          -0.000545556   -0.001341210    0.000000000
      4        1           0.000472869    0.000190122    0.000000000
      5        1          -0.000501314    0.000261288    0.000000000
      6        6          -0.000069835   -0.000499312    0.000000000
      7        1          -0.000371648   -0.000098826    0.000000000
      8        6           0.000551138    0.001319803    0.000000000
      9        1          -0.000465850   -0.000175543    0.000000000
     10        1           0.000496381   -0.000274760    0.000000000
 -------------------------------------------------------------------
 Cartesian Forces:  Max     0.001341210 RMS     0.000452285
 Leave Link  716 at Thu Jun  1 09:10:16 2023, MaxMem=  3145728000 cpu:               0.3 elap:               0.0
 (Enter /share/apps/g16/E6B-113X_avx2/g16/l103.exe)

 GradGradGradGradGradGradGradGradGradGradGradGradGradGradGradGradGradGrad
 Berny optimization.
 Using GEDIIS/GDIIS optimizer.
 FormGI is forming the generalized inverse of G from B-inverse, IUseBI=4.
 Internal  Forces:  Max     0.001059166 RMS     0.000367511
 Search for a local minimum.
 Step number   3 out of a maximum of   43
 All quantities printed in internal units (Hartrees-Bohrs-Radians)
 RMS Force = .36751D-03 SwitMx=.10000D-02 MixMth= 2
 Mixed Optimization -- En-DIIS/RFO-DIIS
 Update second derivatives using D2CorX and points    1    2    3
 DE= -2.92D-04 DEPred=-2.87D-04 R= 1.02D+00
 TightC=F SS=  1.41D+00  RLast= 5.55D-02 DXNew= 8.4853D-01 1.6640D-01
 Trust test= 1.02D+00 RLast= 5.55D-02 DXMaxT set to 5.05D-01
 ITU=  1  1  0
 Use linear search instead of GDIIS.
     Eigenvalues ---    0.00237   0.01497   0.01497   0.02681   0.02681
     Eigenvalues ---    0.02681   0.02681   0.13496   0.16000   0.16000
     Eigenvalues ---    0.16000   0.16063   0.16362   0.21272   0.22007
     Eigenvalues ---    0.29717   0.36880   0.37230   0.37230   0.37230
     Eigenvalues ---    0.37237   0.38848   0.53930   0.56834
 RFO step:  Lambda=-1.67368616D-05 EMin= 2.36824211D-03
 Quartic linear search produced a step of  0.04528.
 Iteration  1 RMS(Cart)=  0.00224771 RMS(Int)=  0.00000419
 Iteration  2 RMS(Cart)=  0.00000400 RMS(Int)=  0.00000000
 Iteration  3 RMS(Cart)=  0.00000000 RMS(Int)=  0.00000000
 ITry= 1 IFail=0 DXMaxC= 6.38D-03 DCOld= 1.00D+10 DXMaxT= 5.05D-01 DXLimC= 3.00D+00 Rises=F
 Variable       Old X    -DE/DX   Delta X   Delta X   Delta X     New X
                                 (Linear)    (Quad)   (Total)
    R1        2.07175   0.00011   0.00023   0.00035   0.00057   2.07233
    R2        2.52949  -0.00106   0.00010  -0.00217  -0.00206   2.52743
    R3        2.76490  -0.00015  -0.00033  -0.00076  -0.00109   2.76381
    R4        2.06822  -0.00005   0.00013  -0.00007   0.00005   2.06827
    R5        2.06504  -0.00050   0.00001  -0.00131  -0.00130   2.06374
    R6        2.07182   0.00009   0.00022   0.00030   0.00052   2.07233
    R7        2.52946  -0.00105   0.00010  -0.00214  -0.00204   2.52743
    R8        2.06825  -0.00006   0.00012  -0.00010   0.00002   2.06827
    R9        2.06503  -0.00050   0.00002  -0.00130  -0.00128   2.06375
    A1        2.08788  -0.00042  -0.00065  -0.00251  -0.00315   2.08472
    A2        2.02878   0.00038  -0.00055   0.00255   0.00200   2.03077
    A3        2.16653   0.00004   0.00120  -0.00004   0.00115   2.16769
    A4        2.11212   0.00052   0.00026   0.00334   0.00361   2.11573
    A5        2.12130   0.00001   0.00054  -0.00007   0.00046   2.12177
    A6        2.04976  -0.00053  -0.00080  -0.00327  -0.00407   2.04569
    A7        2.02865   0.00039  -0.00054   0.00261   0.00207   2.03072
    A8        2.16694  -0.00001   0.00112  -0.00030   0.00082   2.16777
    A9        2.08759  -0.00038  -0.00058  -0.00231  -0.00289   2.08470
   A10        2.11238   0.00049   0.00025   0.00317   0.00342   2.11580
   A11        2.12105   0.00003   0.00055   0.00010   0.00065   2.12169
   A12        2.04976  -0.00053  -0.00080  -0.00327  -0.00407   2.04569
    D1        3.14159   0.00000   0.00000   0.00000   0.00000   3.14159
    D2        0.00000   0.00000   0.00000   0.00000   0.00000   0.00000
    D3        0.00000   0.00000   0.00000   0.00000   0.00000   0.00000
    D4        3.14159   0.00000   0.00000   0.00000   0.00000   3.14159
    D5        3.14159   0.00000   0.00000   0.00000   0.00000   3.14159
    D6        0.00000   0.00000   0.00000   0.00000   0.00000   0.00000
    D7        0.00000   0.00000   0.00000   0.00000   0.00000   0.00000
    D8        3.14159   0.00000   0.00000   0.00000   0.00000   3.14159
    D9        0.00000   0.00000   0.00000   0.00000   0.00000   0.00000
   D10        3.14159   0.00000   0.00000   0.00000   0.00000   3.14159
   D11        3.14159   0.00000   0.00000   0.00000   0.00000   3.14159
   D12        0.00000   0.00000   0.00000   0.00000   0.00000   0.00000
         Item               Value     Threshold  Converged?
 Maximum Force            0.001059     0.000450     NO 
 RMS     Force            0.000368     0.000300     NO 
 Maximum Displacement     0.006378     0.001800     NO 
 RMS     Displacement     0.002248     0.001200     NO 
 Predicted change in Energy=-8.882979D-06
 Lowest energy point so far.  Saving SCF results.
 GradGradGradGradGradGradGradGradGradGradGradGradGradGradGradGradGradGrad

 Leave Link  103 at Thu Jun  1 09:10:16 2023, MaxMem=  3145728000 cpu:               0.5 elap:               0.0
 (Enter /share/apps/g16/E6B-113X_avx2/g16/l202.exe)
                          Input orientation:                          
 ---------------------------------------------------------------------
 Center     Atomic      Atomic             Coordinates (Angstroms)
 Number     Number       Type             X           Y           Z
 ---------------------------------------------------------------------
[...]
     30  0.000000D+00  0.000000D+00  0.000000D+00  0.000000D+00  0.000000D+00
     31  0.000000D+00  0.000000D+00  0.000000D+00  0.000000D+00  0.000000D+00
     32  0.000000D+00  0.000000D+00  0.000000D+00  0.000000D+00  0.000000D+00
     33  0.000000D+00  0.000000D+00  0.000000D+00  0.000000D+00  0.000000D+00
               16            17            18            19            20 
     16  0.901516D-01
     17 -0.561276D-01  0.113516D+00
     18 -0.340239D-01 -0.573882D-01  0.914122D-01
     19 -0.189712D-02 -0.750543D-02  0.940255D-02  0.800558D-01
     20 -0.165671D-02  0.962383D-02 -0.796712D-02 -0.445283D-01  0.796661D-01
     21  0.355383D-02 -0.211840D-02 -0.143543D-02 -0.355275D-01 -0.351377D-01
     22  0.000000D+00  0.000000D+00  0.000000D+00  0.000000D+00  0.000000D+00
     23  0.000000D+00  0.000000D+00  0.000000D+00  0.000000D+00  0.000000D+00
     24  0.000000D+00  0.000000D+00  0.000000D+00  0.000000D+00  0.000000D+00
     25  0.000000D+00  0.000000D+00  0.000000D+00  0.000000D+00  0.000000D+00
     26  0.000000D+00  0.000000D+00  0.000000D+00  0.000000D+00  0.000000D+00
     27  0.000000D+00  0.000000D+00  0.000000D+00  0.000000D+00  0.000000D+00
     28  0.000000D+00  0.000000D+00  0.000000D+00  0.000000D+00  0.000000D+00
     29  0.000000D+00  0.000000D+00  0.000000D+00  0.000000D+00  0.000000D+00
     30  0.000000D+00  0.000000D+00  0.000000D+00  0.000000D+00  0.000000D+00
     31  0.000000D+00  0.000000D+00  0.000000D+00  0.000000D+00  0.000000D+00
     32  0.000000D+00  0.000000D+00  0.000000D+00  0.000000D+00  0.000000D+00
     33  0.000000D+00  0.000000D+00  0.000000D+00  0.000000D+00  0.000000D+00
               21            22            23            24            25 
     21  0.706652D-01
     22  0.000000D+00  0.227078D-01
     23  0.000000D+00  0.128893D-02  0.196437D-01
     24  0.000000D+00  0.146300D-01 -0.406958D-02  0.201324D-01
     25  0.000000D+00 -0.678886D-02  0.142852D-01  0.143284D-02  0.225069D-01
     26  0.000000D+00 -0.382682D-02 -0.277910D-02  0.270273D-02  0.375045D-02
     27  0.000000D+00 -0.353117D-02 -0.192177D-02  0.355914D-02  0.516854D-02
     28  0.000000D+00  0.402777D-02  0.243135D-02 -0.264766D-02 -0.424408D-02
     29  0.000000D+00  0.432341D-02  0.328867D-02 -0.179125D-02 -0.282599D-02
     30  0.000000D+00  0.330870D-03 -0.377251D-03 -0.549868D-03 -0.125799D-02
     31  0.000000D+00  0.200402D-03 -0.821519D-03 -0.125801D-02 -0.227993D-02
     32  0.000000D+00  0.634916D-03  0.504443D-03  0.330883D-03  0.200410D-03
     33  0.000000D+00  0.504448D-03  0.601752D-04 -0.377258D-03 -0.821530D-03
               26            27            28            29            30 
     26  0.830209D-02
     27  0.195305D-02  0.844393D-02
     28  0.195297D-02 -0.494134D-02  0.844395D-02
     29 -0.439607D-02  0.154953D-02  0.154964D-02  0.749524D-02
     30  0.270272D-02 -0.264763D-02  0.355912D-02 -0.179123D-02  0.201322D-01
     31  0.375042D-02 -0.424405D-02  0.516853D-02 -0.282594D-02  0.143285D-02
     32 -0.382680D-02  0.402775D-02 -0.353117D-02  0.432338D-02  0.146298D-01
     33 -0.277910D-02  0.243133D-02 -0.192176D-02  0.328868D-02 -0.406959D-02
               31            32            33 
     31  0.225071D-01
     32 -0.678888D-02  0.227076D-01
     33  0.142853D-01  0.128896D-02  0.196439D-01
 Leave Link  716 at Thu Jun  1 09:10:34 2023, MaxMem=  3145728000 cpu:               1.6 elap:               0.1
 (Enter /share/apps/g16/E6B-113X_avx2/g16/l103.exe)

 GradGradGradGradGradGradGradGradGradGradGradGradGradGradGradGradGradGrad
 Berny optimization.
 Red2BG is reusing G-inverse.
 Internal  Forces:  Max     0.000036459 RMS     0.000016273
 Search for a local minimum.
 Step number   1 out of a maximum of    2
 All quantities printed in internal units (Hartrees-Bohrs-Radians)
 Second derivative matrix not updated -- analytic derivatives used.
 ITU=  0
     Eigenvalues ---    0.00678   0.02420   0.02534   0.03074   0.03329
     Eigenvalues ---    0.04044   0.04189   0.10247   0.10411   0.11050
     Eigenvalues ---    0.11419   0.11990   0.13418   0.15561   0.18822
     Eigenvalues ---    0.35481   0.35490   0.35869   0.36179   0.36273
     Eigenvalues ---    0.36711   0.36755   0.64291   0.64991
 Angle between quadratic step and forces=  25.71 degrees.
 Linear search not attempted -- first point.
 Iteration  1 RMS(Cart)=  0.00006485 RMS(Int)=  0.00000001
 Iteration  2 RMS(Cart)=  0.00000001 RMS(Int)=  0.00000000
 ITry= 1 IFail=0 DXMaxC= 1.49D-04 DCOld= 1.00D+10 DXMaxT= 3.00D-01 DXLimC= 3.00D+00 Rises=F
 Variable       Old X    -DE/DX   Delta X   Delta X   Delta X     New X
                                 (Linear)    (Quad)   (Total)
    R1        2.07213  -0.00004   0.00000  -0.00011  -0.00011   2.07202
    R2        2.52773   0.00001   0.00000   0.00001   0.00001   2.52774
    R3        2.76424  -0.00003   0.00000  -0.00005  -0.00005   2.76419
    R4        2.06821  -0.00001   0.00000  -0.00003  -0.00003   2.06818
    R5        2.06378   0.00003   0.00000   0.00009   0.00009   2.06388
    R6        2.07213  -0.00004   0.00000  -0.00011  -0.00011   2.07202
    R7        2.52773   0.00001   0.00000   0.00001   0.00001   2.52774
    R8        2.06820  -0.00001   0.00000  -0.00003  -0.00003   2.06818
    R9        2.06379   0.00003   0.00000   0.00009   0.00009   2.06388
    A1        2.08431   0.00002   0.00000   0.00008   0.00008   2.08439
    A2        2.03142   0.00001   0.00000   0.00007   0.00007   2.03149
    A3        2.16745  -0.00003   0.00000  -0.00015  -0.00015   2.16730
    A4        2.11689   0.00001   0.00000   0.00013   0.00013   2.11702
    A5        2.12174   0.00000   0.00000   0.00001   0.00001   2.12175
    A6        2.04455  -0.00001   0.00000  -0.00014  -0.00014   2.04441
    A7        2.03141   0.00001   0.00000   0.00008   0.00008   2.03149
    A8        2.16746  -0.00003   0.00000  -0.00016  -0.00016   2.16730
    A9        2.08431   0.00002   0.00000   0.00008   0.00008   2.08439
   A10        2.11690   0.00001   0.00000   0.00012   0.00012   2.11702
   A11        2.12173   0.00000   0.00000   0.00002   0.00002   2.12175
   A12        2.04455  -0.00001   0.00000  -0.00014  -0.00014   2.04441
    D1        3.14159   0.00000   0.00000   0.00000   0.00000   3.14159
    D2        0.00000   0.00000   0.00000   0.00000   0.00000   0.00000
    D3        0.00000   0.00000   0.00000   0.00000   0.00000   0.00000
    D4        3.14159   0.00000   0.00000   0.00000   0.00000   3.14159
    D5        3.14159   0.00000   0.00000   0.00000   0.00000   3.14159
    D6        0.00000   0.00000   0.00000   0.00000   0.00000   0.00000
    D7        0.00000   0.00000   0.00000   0.00000   0.00000   0.00000
    D8        3.14159   0.00000   0.00000   0.00000   0.00000   3.14159
    D9        0.00000   0.00000   0.00000   0.00000   0.00000   0.00000
   D10       -3.14159   0.00000   0.00000   0.00000   0.00000  -3.14159
   D11        3.14159   0.00000   0.00000   0.00000   0.00000   3.14159
   D12        0.00000   0.00000   0.00000   0.00000   0.00000   0.00000
         Item               Value     Threshold  Converged?
 Maximum Force            0.000036     0.000450     YES
 RMS     Force            0.000016     0.000300     YES
 Maximum Displacement     0.000149     0.001800     YES
 RMS     Displacement     0.000065     0.001200     YES
 Predicted change in Energy=-1.831814D-08
 Optimization completed.
    -- Stationary point found.
                           ----------------------------
                           !   Optimized Parameters   !
                           ! (Angstroms and Degrees)  !
 --------------------------                            --------------------------
 ! Name  Definition              Value          Derivative Info.                !
 --------------------------------------------------------------------------------
 ! R1    R(1,2)                  1.0965         -DE/DX =    0.0                 !
 ! R2    R(1,3)                  1.3376         -DE/DX =    0.0                 !
 ! R3    R(1,6)                  1.4628         -DE/DX =    0.0                 !
 ! R4    R(3,4)                  1.0944         -DE/DX =    0.0                 !
 ! R5    R(3,5)                  1.0921         -DE/DX =    0.0                 !
 ! R6    R(6,7)                  1.0965         -DE/DX =    0.0                 !
 ! R7    R(6,8)                  1.3376         -DE/DX =    0.0                 !
 ! R8    R(8,9)                  1.0944         -DE/DX =    0.0                 !
 ! R9    R(8,10)                 1.0921         -DE/DX =    0.0                 !
 ! A1    A(2,1,3)              119.4222         -DE/DX =    0.0                 !
 ! A2    A(2,1,6)              116.3918         -DE/DX =    0.0                 !
 ! A3    A(3,1,6)              124.186          -DE/DX =    0.0                 !
 ! A4    A(1,3,4)              121.2891         -DE/DX =    0.0                 !
 ! A5    A(1,3,5)              121.5668         -DE/DX =    0.0                 !
 ! A6    A(4,3,5)              117.1442         -DE/DX =    0.0                 !
 ! A7    A(1,6,7)              116.391          -DE/DX =    0.0                 !
 ! A8    A(1,6,8)              124.1865         -DE/DX =    0.0                 !
 ! A9    A(7,6,8)              119.4225         -DE/DX =    0.0                 !
 ! A10   A(6,8,9)              121.2896         -DE/DX =    0.0                 !
 ! A11   A(6,8,10)             121.5662         -DE/DX =    0.0                 !
 ! A12   A(9,8,10)             117.1442         -DE/DX =    0.0                 !
 ! D1    D(2,1,3,4)            180.0            -DE/DX =    0.0                 !
 ! D2    D(2,1,3,5)              0.0            -DE/DX =    0.0                 !
 ! D3    D(6,1,3,4)              0.0            -DE/DX =    0.0                 !
 ! D4    D(6,1,3,5)            180.0            -DE/DX =    0.0                 !
 ! D5    D(2,1,6,7)            180.0            -DE/DX =    0.0                 !
 ! D6    D(2,1,6,8)              0.0            -DE/DX =    0.0                 !
 ! D7    D(3,1,6,7)              0.0            -DE/DX =    0.0                 !
 ! D8    D(3,1,6,8)            180.0            -DE/DX =    0.0                 !
 ! D9    D(1,6,8,9)              0.0            -DE/DX =    0.0                 !
 ! D10   D(1,6,8,10)          -180.0            -DE/DX =    0.0                 !
 ! D11   D(7,6,8,9)            180.0            -DE/DX =    0.0                 !
 ! D12   D(7,6,8,10)             0.0            -DE/DX =    0.0                 !
 --------------------------------------------------------------------------------
 GradGradGradGradGradGradGradGradGradGradGradGradGradGradGradGradGradGrad

 Leave Link  103 at Thu Jun  1 09:10:34 2023, MaxMem=  3145728000 cpu:               1.1 elap:               0.1
 (Enter /share/apps/g16/E6B-113X_avx2/g16/l9999.exe)

 ----------------------------------------------------------------------

 Electric dipole moment (input orientation):
 (Debye = 10**-18 statcoulomb cm , SI units = C m)
                  (au)            (Debye)         (10**-30 SI)
   Tot        0.000000D+00      0.000000D+00      0.000000D+00
   x          0.000000D+00      0.000000D+00      0.000000D+00
   y          0.000000D+00      0.000000D+00      0.000000D+00
   z          0.000000D+00      0.000000D+00      0.000000D+00

 Dipole polarizability, Alpha (input orientation).
 (esu units = cm**3 , SI units = C**2 m**2 J**-1)
 Alpha(0;0):
               (au)            (10**-24 esu)      (10**-40 SI)
   iso        0.467909D+02      0.693369D+01      0.771477D+01
   aniso      0.526994D+02      0.780924D+01      0.868895D+01
   xx         0.589824D+02      0.874029D+01      0.972489D+01
   yx         0.205236D+02      0.304128D+01      0.338388D+01
   yy         0.605205D+02      0.896822D+01      0.997849D+01
   zx         0.000000D+00      0.000000D+00      0.000000D+00
   zy         0.000000D+00      0.000000D+00      0.000000D+00
   zz         0.208696D+02      0.309256D+01      0.344094D+01

 ----------------------------------------------------------------------

 Dipole orientation:
     6         -0.68155911          2.76977197          2.72707944
     1         -0.21446702          0.82687940          3.27546179
     6         -1.10730343          4.49826095          4.52165012
     1         -1.57772621          6.45370977          4.03957022
     1         -1.00123706          4.02230296          6.52699747
     6         -0.79451690          3.28732782          0.01406937
     1         -1.26161067          5.23022667         -0.53428568
     6         -0.36877669          1.55885637         -1.78051707
     1          0.10164768         -0.39659794         -1.29847633
     1         -0.47485252          2.03485359         -3.78585701

 Electric dipole moment (dipole orientation):
 (Debye = 10**-18 statcoulomb cm , SI units = C m)
                  (au)            (Debye)         (10**-30 SI)
   Tot        0.000000D+00      0.000000D+00      0.000000D+00
   x          0.000000D+00      0.000000D+00      0.000000D+00
   y          0.000000D+00      0.000000D+00      0.000000D+00
   z          0.000000D+00      0.000000D+00      0.000000D+00

 Dipole polarizability, Alpha (dipole orientation).
 (esu units = cm**3 , SI units = C**2 m**2 J**-1)
 Alpha(0;0):
               (au)            (10**-24 esu)      (10**-40 SI)
   iso        0.467909D+02      0.693369D+01      0.771477D+01
   aniso      0.526994D+02      0.780924D+01      0.868895D+01
   xx         0.225735D+02      0.334505D+01      0.372187D+01
   yx        -0.696595D+01     -0.103225D+01     -0.114853D+01
   yy         0.493601D+02      0.731442D+01      0.813839D+01
   zx        -0.457234D+01     -0.677551D+00     -0.753877D+00
   zy         0.180402D+02      0.267329D+01      0.297443D+01
   zz         0.684389D+02      0.101416D+02      0.112841D+02

 ----------------------------------------------------------------------
 1\1\GINC-COMPUTE-0-23\Freq\RwB97XD\def2SVP\C4H6\ROOT\01-Jun-2023\0\\#P
  Geom=AllCheck Guess=TCheck SCRF=Check GenChk RwB97XD/def2SVP Freq\\Ti
 tle Card Required\\0,1\C,1.0481655308,1.8061747714,0.0000000116\H,1.57
 86387414,0.8465055738,0.0000000215\C,1.7499608962,2.9449030353,-0.0000
 000035\H,1.2519775249,3.9194945374,-0.0000000235\H,2.8420672862,2.9434
 035636,-0.0000000101\C,-0.4131718755,1.7413355223,0.0000000151\H,-0.94
 36318521,2.7010114559,0.0000000251\C,-1.1149775867,0.6026145625,0.0000
 000017\H,-0.6170136502,-0.3719847445,-0.0000000212\H,-2.207085185,0.60
 41357122,-0.0000000167\\Version=ES64L-G16RevA.03\HF=-155.8220305\RMSD=
 4.938e-10\RMSF=2.977e-05\ZeroPoint=0.0855538\Thermal=0.0902071\Dipole=
 0.0000028,0.0000007,0.\DipoleDeriv=0.1507402,0.0674598,0.,-0.0290442,0
 .0663817,0.,0.,0.,-0.1097583,-0.0075754,0.0218273,0.,0.0772287,-0.0674
 796,0.,0.,0.,0.1257984,-0.0899777,-0.157519,0.,-0.1008421,-0.0094072,0
 .,0.,0.,-0.2958521,0.0132762,0.090078,0.,0.0354878,-0.0376646,0.,0.,0.
 ,0.1427315,-0.066468,-0.021847,0.,0.0171675,0.0481702,0.,0.,0.,0.13708
 09,0.1507475,0.0674669,0.,-0.0290391,0.0663837,0.,0.,0.,-0.1097581,-0.
 0075736,0.0218253,0.,0.0772286,-0.0674812,0.,0.,0.,0.1257973,-0.089978
 2,-0.1575196,0.,-0.1008433,-0.0094081,0.,0.,0.,-0.2958524,0.0132792,0.
 0900749,0.,0.0354867,-0.0376637,0.,0.,0.,0.1427325,-0.0664703,-0.02184
 66,0.,0.0171694,0.0481688,0.,0.,0.,0.1370802\Polar=58.9824301,20.52355
 88,60.5205371,0.,0.,20.8696215\Quadrupole=1.2996667,1.4123015,-2.71196
 82,-0.0224304,0.,0.\PG=C01 [X(C4H6)]\NImag=0\\0.66726413,0.09699091,0.
 84170157,0.,0.,0.13694842,-0.12339346,0.12013356,0.,0.12801590,0.11750
 655,-0.26779248,0.,-0.12571634,0.28435435,0.,0.,-0.04229344,0.,0.,0.02
 701246,-0.23540299,-0.20484330,0.,0.01074455,0.01510068,0.,0.72578416,
 -0.19649942,-0.45583821,0.,-0.01722943,-0.01891858,0.,0.10181583,0.807
 40493,0.,0.,-0.05398791,0.,0.,0.00676880,0.,-0.00000001,0.10942910,0.0
 1107304,-0.01536622,0.,-0.00104856,-0.00272978,0.,-0.12024273,0.120623
 82,0.,0.11598702,0.01546442,-0.01867900,0.,-0.00306407,-0.00265808,0.,
 0.11611754,-0.28043760,0.,-0.12533142,0.29675965,0.,0.,0.00606988,0.,0
 .,0.01117028,0.,0.,-0.03566982,0.,0.,0.02307740,-0.00986306,0.00489656
 ,0.,0.00087869,-0.00013417,0.,-0.35102740,0.00264899,0.,-0.00683884,-0
 .00369432,0.,0.36639993,-0.02859438,0.00443794,0.,-0.00012529,0.000857
 50,0.,0.00839008,-0.05646963,0.,0.02386809,0.00316456,0.,-0.00121761,0
 .05177758,0.,0.,0.00567772,0.,0.,-0.00766268,0.,0.,-0.03437557,0.,0.,0
 .00261324,0.,0.,0.02285344,-0.27285232,0.01443990,0.,-0.01196147,-0.00
 290014,0.,-0.02699839,-0.01789056,0.,0.00130658,0.00201942,0.,0.000828
 08,-0.00053775,0.,0.66726590,0.01444047,-0.09975069,0.,0.02730941,0.00
 205910,0.,-0.03908512,-0.00331991,0.,-0.00195787,0.00133566,0.,-0.0025
 1855,-0.00415420,0.,0.09699665,0.84170314,0.,0.,-0.06743004,0.,0.,0.00
 340686,0.,0.,0.00746984,0.,0.,-0.00831655,0.,0.,0.01245502,0.,0.,0.136
 94821,-0.01196200,0.02730970,0.,-0.00480669,-0.00084018,0.,0.00138995,
 0.00119123,0.,-0.00013896,-0.00127894,0.,0.00031998,-0.00037992,0.,-0.
 12339027,0.12013202,0.,0.12801344,-0.00289992,0.00205866,0.,-0.0008401
 5,0.00054159,0.,-0.00096861,0.00146043,0.,0.00061975,0.00000461,0.,0.0
 0006196,0.00009167,0.,0.11750544,-0.26779612,0.,-0.12571472,0.28435805
 ,0.,0.,0.00340699,0.,0.,0.00271396,0.,0.,-0.00113521,0.,0.,0.00026158,
 0.,0.,-0.00024262,0.,0.,-0.04229328,0.,0.,0.02701234,-0.02699815,-0.03
 908487,0.,0.00139004,-0.00096837,0.,-0.00360004,0.00514300,0.,-0.00001
 719,-0.00034198,0.,-0.00062986,-0.00132810,0.,-0.23540746,-0.20484690,
 0.,0.01074446,0.01510020,0.,0.72578117,-0.01789007,-0.00331936,0.,0.00
 119109,0.00146037,0.,0.00514292,0.00518018,0.,0.00000043,0.00032065,0.
 ,0.00019610,0.00061779,0.,-0.19650246,-0.45583651,0.,-0.01722981,-0.01
 891841,0.,0.10181456,0.80741080,0.,0.,0.00746988,0.,0.,-0.00113519,0.,
 0.,0.00162804,0.,0.,0.00024456,0.,0.,-0.00037183,0.,0.,-0.05398761,0.,
 0.,0.00676867,0.,0.00000001,0.10942864,0.00130669,-0.00195762,0.,-0.00
 013895,0.00061978,0.,-0.00001720,0.00000044,0.,-0.00011764,0.00016401,
 0.,0.00003727,0.00010918,0.,0.01107319,-0.01536674,0.,-0.00104864,-0.0
 0272980,0.,-0.12023871,0.12062248,0.,0.11598248,0.00201931,0.00133570,
 0.,-0.00127887,0.00000458,0.,-0.00034196,0.00032061,0.,0.00016400,0.00
 019741,0.,-0.00005467,-0.00000785,0.,0.01546399,-0.01867853,0.,-0.0030
 6405,-0.00265793,0.,0.11611641,-0.28044542,0.,-0.12533001,0.29676718,0
 .,0.,-0.00831652,0.,0.,0.00026158,0.,0.,0.00024455,0.,0.,0.00024873,0.
 ,0.,0.00030069,0.,0.,0.00606978,0.,0.,0.01117032,0.,0.,-0.03566921,0.,
 0.,0.02307684,0.00082811,-0.00251863,0.,0.00031996,0.00006197,0.,-0.00
 062990,0.00019610,0.,0.00003728,-0.00005467,0.,-0.00010479,-0.00018429
 ,0.,-0.00986384,0.00489663,0.,0.00087873,-0.00013416,0.,-0.35102426,0.
 00265475,0.,-0.00683848,-0.00369416,0.,0.36639720,-0.00053786,-0.00415
 413,0.,-0.00037992,0.00009166,0.,-0.00132807,0.00061777,0.,0.00010918,
 -0.00000785,0.,-0.00018428,-0.00031537,0.,-0.02859449,0.00443807,0.,-0
 .00012534,0.00085746,0.,0.00839605,-0.05647009,0.,0.02386827,0.0031642
 3,0.,-0.00122355,0.05177825,0.,0.,0.01245503,0.,0.,-0.00024263,0.,0.,-
 0.00037182,0.,0.,0.00030070,0.,0.,-0.00124742,0.,0.,0.00567779,0.,0.,-
 0.00766275,0.,0.,-0.03437593,0.,0.,0.00261323,0.,0.,0.02285380\\-0.000
 01074,0.00007890,0.,0.00001878,-0.00003148,0.,0.00006599,-0.00001426,0
 .,-0.00001638,0.00000266,0.,-0.00003101,-0.00000653,0.,0.00000886,-0.0
 0007921,0.,-0.00001775,0.00003159,0.,-0.00006342,0.00001312,0.,0.00001
 540,-0.00000192,0.,0.00003027,0.00000712,0.\\\@


 Everything starts as somebody's daydream.
                           -- Larry Niven
 Job cpu time:       0 days  0 hours  4 minutes 40.1 seconds.
 Elapsed time:       0 days  0 hours  0 minutes 12.0 seconds.
 File lengths (MBytes):  RWF=     12 Int=      0 D2E=      0 Chk=      2 Scr=      1
 Normal termination of Gaussian 16 at Thu Jun  1 09:10:35 2023.
