compute-0-23
 Entering Gaussian System, Link 0=g16
 Initial command:
 /share/apps/g16/E6B-113X_avx2/g16/l1.exe "/state/partition1/csokas/Gau-46718.inp" -scrdir="/state/partition1/csokas/"
 Entering Link 1 = /share/apps/g16/E6B-113X_avx2/g16/l1.exe PID=     46742.
  
 Copyright (c) 1988,1990,1992,1993,1995,1998,2003,2009,2016,
            Gaussian, Inc.  All Rights Reserved.
  
 This is part of the Gaussian(R) 16 program.  It is based on
 the Gaussian(R) 09 system (copyright 2009, Gaussian, Inc.),
 the Gaussian(R) 03 system (copyright 2003, Gaussian, Inc.),
 the Gaussian(R) 98 system (copyright 1998, Gaussian, Inc.),
 the Gaussian(R) 94 system (copyright 1995, Gaussian, Inc.),
 the Gaussian 92(TM) system (copyright 1992, Gaussian, Inc.),
 the Gaussian 90(TM) system (copyright 1990, Gaussian, Inc.),
 the Gaussian 88(TM) system (copyright 1988, Gaussian, Inc.),
 the Gaussian 86(TM) system (copyright 1986, Carnegie Mellon
 University), and the Gaussian 82(TM) system (copyright 1983,
 Carnegie Mellon University). Gaussian is a federally registered
 trademark of Gaussian, Inc.
  
 This software contains proprietary and confidential information,
 including trade secrets, belonging to Gaussian, Inc.
  
 This software is provided under written license and may be
 used, copied, transmitted, or stored only in accord with that
 written license.
  
 The following legend is applicable only to US Government
 contracts under FAR:
  
                    RESTRICTED RIGHTS LEGEND
  
 Use, reproduction and disclosure by the US Government is
 subject to restrictions as set forth in subparagraphs (a)
 and (c) of the Commercial Computer Software - Restricted
 Rights clause in FAR 52.227-19.
  
 Gaussian, Inc.
 340 Quinnipiac St., Bldg. 40, Wallingford CT 06492
  
  
 ---------------------------------------------------------------
 Warning -- This program may not be used in any manner that
 competes with the business of Gaussian, Inc. or will provide
 assistance to any competitor of Gaussian, Inc.  The licensee
 of this program is prohibited from giving any competitor of
 Gaussian, Inc. access to this program.  By using this program,
 the user acknowledges that Gaussian, Inc. is engaged in the
 business of creating and licensing software in the field of
 computational chemistry and represents and warrants to the
 licensee that it is not a competitor of Gaussian, Inc. and that
 it will not use this program in any manner prohibited above.
 ---------------------------------------------------------------
  

 Cite this work as:
 Gaussian 16, Revision A.03,
 M. J. Frisch, G. W. Trucks, H. B. Schlegel, G. E. Scuseria, 
 M. A. Robb, J. R. Cheeseman, G. Scalmani, V. Barone, 
 G. A. Petersson, H. Nakatsuji, X. Li, M. Caricato, A. V. Marenich, 
 J. Bloino, B. G. Janesko, R. Gomperts, B. Mennucci, H. P. Hratchian, 
 J. V. Ortiz, A. F. Izmaylov, J. L. Sonnenberg, D. Williams-Young, 
 F. Ding, F. Lipparini, F. Egidi, J. Goings, B. Peng, A. Petrone, 
 T. Henderson, D. Ranasinghe, V. G. Zakrzewski, J. Gao, N. Rega, 
 G. Zheng, W. Liang, M. Hada, M. Ehara, K. Toyota, R. Fukuda, 
 J. Hasegawa, M. Ishida, T. Nakajima, Y. Honda, O. Kitao, H. Nakai, 
 T. Vreven, K. Throssell, J. A. Montgomery, Jr., J. E. Peralta, 
 F. Ogliaro, M. J. Bearpark, J. J. Heyd, E. N. Brothers, K. N. Kudin, 
 V. N. Staroverov, T. A. Keith, R. Kobayashi, J. Normand, 
 K. Raghavachari, A. P. Rendell, J. C. Burant, S. S. Iyengar, 
 J. Tomasi, M. Cossi, J. M. Millam, M. Klene, C. Adamo, R. Cammi, 
 J. W. Ochterski, R. L. Martin, K. Morokuma, O. Farkas, 
 J. B. Foresman, and D. J. Fox, Gaussian, Inc., Wallingford CT, 2016.
 
 ******************************************
 Gaussian 16:  ES64L-G16RevA.03 25-Dec-2016
                 1-Jun-2023 
 ******************************************
 %chk=cyclohexene.chk
 %nproc=24
 Will use up to   24 processors via shared memory.
 %mem=24000MB
 -----------------------------------------------------------------
 #P wB97XD/Def2SVP opt freq=noraman Int(Grid=UltraFine) nosymmetry
 -----------------------------------------------------------------
 1/18=20,19=15,26=4,38=1/1,3;
 2/9=110,12=2,15=1,17=6,18=5,40=1/2;
 3/5=43,7=101,11=2,25=1,30=1,71=1,74=-58,75=-5/1,2,3;
 4//1;
 5/5=2,38=5/2;
 6/7=2,8=2,9=2,10=2,28=1/1;
 7/30=1/1,2,3,16;
 1/18=20,19=15,26=4/3(2);
 2/9=110,15=1/2;
 99//99;
 2/9=110,15=1/2;
 3/5=43,7=101,11=2,25=1,30=1,71=1,74=-58,75=-5/1,2,3;
 4/5=5,16=3,69=1/1;
 5/5=2,38=5/2;
 7/30=1/1,2,3,16;
 1/18=20,19=15,26=4/3(-5);
 2/9=110,15=1/2;
 6/7=2,8=2,9=2,10=2,19=2,28=1/1;
 99/9=1/99;
 Leave Link    1 at Thu Jun  1 09:10:05 2023, MaxMem=  3145728000 cpu:               1.3 elap:               0.1
 (Enter /share/apps/g16/E6B-113X_avx2/g16/l101.exe)
 -------------------
 Title Card Required
 -------------------
 Symbolic Z-matrix:
 Charge =  0 Multiplicity = 1
 C                    -1.09871  -3.02496   0. 
 C                     0.4164   -3.02496   0. 
 C                     0.96833  -1.61389   0. 
 C                     0.41867  -0.80935   1.16066 
 C                    -1.09646  -0.80869   1.16017 
 C                    -1.64926  -2.21931   1.15888 
 H                     2.08693  -1.64788   0.06271 
 H                     0.78895  -3.5706    0.90656 
 H                     0.79169  -3.57482  -0.90191 
 H                    -1.47139  -2.59193  -0.96539 
 H                    -1.4743   -4.07918   0.0635 
 H                     0.79469   0.24479   1.09867 
 H                    -1.47178  -0.25926   2.06229 
 H                    -1.46831  -0.26209   0.25385 
 H                    -1.38325  -2.72503   2.12419 
 H                    -2.7678   -2.18425   1.09394 
 
 ITRead=  0  0  0  0  0  0  0  0  0  0  0  0  0  0  0  0
 MicOpt= -1 -1 -1 -1 -1 -1 -1 -1 -1 -1 -1 -1 -1 -1 -1 -1
 NAtoms=     16 NQM=       16 NQMF=       0 NMMI=      0 NMMIF=      0
                NMic=       0 NMicF=      0.
                    Isotopes and Nuclear Properties:
 (Nuclear quadrupole moments (NQMom) in fm**2, nuclear magnetic moments (NMagM)
  in nuclear magnetons)

  Atom         1           2           3           4           5           6           7           8           9          10
 IAtWgt=          12          12          12          12          12          12           1           1           1           1
 AtmWgt=  12.0000000  12.0000000  12.0000000  12.0000000  12.0000000  12.0000000   1.0078250   1.0078250   1.0078250   1.0078250
 NucSpn=           0           0           0           0           0           0           1           1           1           1
 AtZEff=   0.0000000   0.0000000   0.0000000   0.0000000   0.0000000   0.0000000   0.0000000   0.0000000   0.0000000   0.0000000
 NQMom=    0.0000000   0.0000000   0.0000000   0.0000000   0.0000000   0.0000000   0.0000000   0.0000000   0.0000000   0.0000000
 NMagM=    0.0000000   0.0000000   0.0000000   0.0000000   0.0000000   0.0000000   2.7928460   2.7928460   2.7928460   2.7928460
 AtZNuc=   6.0000000   6.0000000   6.0000000   6.0000000   6.0000000   6.0000000   1.0000000   1.0000000   1.0000000   1.0000000

  Atom        11          12          13          14          15          16
 IAtWgt=           1           1           1           1           1           1
 AtmWgt=   1.0078250   1.0078250   1.0078250   1.0078250   1.0078250   1.0078250
 NucSpn=           1           1           1           1           1           1
 AtZEff=   0.0000000   0.0000000   0.0000000   0.0000000   0.0000000   0.0000000
 NQMom=    0.0000000   0.0000000   0.0000000   0.0000000   0.0000000   0.0000000
 NMagM=    2.7928460   2.7928460   2.7928460   2.7928460   2.7928460   2.7928460
 AtZNuc=   1.0000000   1.0000000   1.0000000   1.0000000   1.0000000   1.0000000
 Leave Link  101 at Thu Jun  1 09:10:06 2023, MaxMem=  3145728000 cpu:              10.2 elap:               0.5
 (Enter /share/apps/g16/E6B-113X_avx2/g16/l103.exe)

 GradGradGradGradGradGradGradGradGradGradGradGradGradGradGradGradGradGrad
 Berny optimization.
 Initialization pass.
                           ----------------------------
                           !    Initial Parameters    !
                           ! (Angstroms and Degrees)  !
 --------------------------                            --------------------------
 ! Name  Definition              Value          Derivative Info.                !
 --------------------------------------------------------------------------------
 ! R1    R(1,2)                  1.5151         estimate D2E/DX2                !
 ! R2    R(1,6)                  1.515          estimate D2E/DX2                !
 ! R3    R(1,10)                 1.1218         estimate D2E/DX2                !
 ! R4    R(1,11)                 1.1209         estimate D2E/DX2                !
 ! R5    R(2,3)                  1.5152         estimate D2E/DX2                !
 ! R6    R(2,8)                  1.1218         estimate D2E/DX2                !
 ! R7    R(2,9)                  1.121          estimate D2E/DX2                !
 ! R8    R(3,4)                  1.5154         estimate D2E/DX2                !
 ! R9    R(3,7)                  1.1209         estimate D2E/DX2                !
 ! R10   R(4,5)                  1.5151         estimate D2E/DX2                !
 ! R11   R(4,12)                 1.1209         estimate D2E/DX2                !
 ! R12   R(5,6)                  1.5151         estimate D2E/DX2                !
 ! R13   R(5,13)                 1.121          estimate D2E/DX2                !
 ! R14   R(5,14)                 1.1218         estimate D2E/DX2                !
 ! R15   R(6,15)                 1.1218         estimate D2E/DX2                !
 ! R16   R(6,16)                 1.121          estimate D2E/DX2                !
 ! A1    A(2,1,6)              111.3094         estimate D2E/DX2                !
 ! A2    A(2,1,10)             109.4042         estimate D2E/DX2                !
 ! A3    A(2,1,11)             109.5772         estimate D2E/DX2                !
 ! A4    A(6,1,10)             109.4074         estimate D2E/DX2                !
 ! A5    A(6,1,11)             109.5749         estimate D2E/DX2                !
 ! A6    A(10,1,11)            107.4863         estimate D2E/DX2                !
 ! A7    A(1,2,3)              111.3625         estimate D2E/DX2                !
 ! A8    A(1,2,8)              109.3968         estimate D2E/DX2                !
 ! A9    A(1,2,9)              109.5595         estimate D2E/DX2                !
 ! A10   A(3,2,8)              109.3908         estimate D2E/DX2                !
 ! A11   A(3,2,9)              109.5638         estimate D2E/DX2                !
 ! A12   A(8,2,9)              107.4839         estimate D2E/DX2                !
 ! A13   A(2,3,4)              111.2413         estimate D2E/DX2                !
 ! A14   A(2,3,7)              109.59           estimate D2E/DX2                !
 ! A15   A(4,3,7)              109.586          estimate D2E/DX2                !
 ! A16   A(3,4,5)              111.2657         estimate D2E/DX2                !
 ! A17   A(3,4,12)             109.5868         estimate D2E/DX2                !
 ! A18   A(5,4,12)             109.5746         estimate D2E/DX2                !
 ! A19   A(4,5,6)              111.3744         estimate D2E/DX2                !
 ! A20   A(4,5,13)             109.5589         estimate D2E/DX2                !
 ! A21   A(4,5,14)             109.3871         estimate D2E/DX2                !
 ! A22   A(6,5,13)             109.5649         estimate D2E/DX2                !
 ! A23   A(6,5,14)             109.3914         estimate D2E/DX2                !
 ! A24   A(13,5,14)            107.4801         estimate D2E/DX2                !
 ! A25   A(1,6,5)              111.2962         estimate D2E/DX2                !
 ! A26   A(1,6,15)             109.4108         estimate D2E/DX2                !
 ! A27   A(1,6,16)             109.5686         estimate D2E/DX2                !
 ! A28   A(5,6,15)             109.42           estimate D2E/DX2                !
 ! A29   A(5,6,16)             109.5728         estimate D2E/DX2                !
 ! A30   A(15,6,16)            107.4917         estimate D2E/DX2                !
 ! D1    D(6,1,2,3)            -55.1928         estimate D2E/DX2                !
 ! D2    D(6,1,2,8)             65.8497         estimate D2E/DX2                !
 ! D3    D(6,1,2,9)           -176.5618         estimate D2E/DX2                !
 ! D4    D(10,1,2,3)            65.8411         estimate D2E/DX2                !
 ! D5    D(10,1,2,8)          -173.1163         estimate D2E/DX2                !
 ! D6    D(10,1,2,9)           -55.5279         estimate D2E/DX2                !
 ! D7    D(11,1,2,3)          -176.5529         estimate D2E/DX2                !
 ! D8    D(11,1,2,8)           -55.5104         estimate D2E/DX2                !
 ! D9    D(11,1,2,9)            62.0781         estimate D2E/DX2                !
 ! D10   D(2,1,6,5)             55.0823         estimate D2E/DX2                !
 ! D11   D(2,1,6,15)           -65.9633         estimate D2E/DX2                !
 ! D12   D(2,1,6,16)           176.4253         estimate D2E/DX2                !
 ! D13   D(10,1,6,5)           -65.9498         estimate D2E/DX2                !
 ! D14   D(10,1,6,15)          173.0046         estimate D2E/DX2                !
 ! D15   D(10,1,6,16)           55.3933         estimate D2E/DX2                !
 ! D16   D(11,1,6,5)           176.4437         estimate D2E/DX2                !
 ! D17   D(11,1,6,15)           55.3981         estimate D2E/DX2                !
 ! D18   D(11,1,6,16)          -62.2133         estimate D2E/DX2                !
 ! D19   D(1,2,3,4)             55.2571         estimate D2E/DX2                !
 ! D20   D(1,2,3,7)            176.5953         estimate D2E/DX2                !
 ! D21   D(8,2,3,4)            -65.7889         estimate D2E/DX2                !
 ! D22   D(8,2,3,7)             55.5492         estimate D2E/DX2                !
 ! D23   D(9,2,3,4)            176.6237         estimate D2E/DX2                !
 ! D24   D(9,2,3,7)            -62.0382         estimate D2E/DX2                !
 ! D25   D(2,3,4,5)            -55.2366         estimate D2E/DX2                !
 ! D26   D(2,3,4,12)          -176.5742         estimate D2E/DX2                !
 ! D27   D(7,3,4,5)           -176.5771         estimate D2E/DX2                !
 ! D28   D(7,3,4,12)            62.0853         estimate D2E/DX2                !
 ! D29   D(3,4,5,6)             55.2381         estimate D2E/DX2                !
 ! D30   D(3,4,5,13)           176.6158         estimate D2E/DX2                !
 ! D31   D(3,4,5,14)           -65.8064         estimate D2E/DX2                !
 ! D32   D(12,4,5,6)           176.5828         estimate D2E/DX2                !
 ! D33   D(12,4,5,13)          -62.0395         estimate D2E/DX2                !
 ! D34   D(12,4,5,14)           55.5383         estimate D2E/DX2                !
 ! D35   D(4,5,6,1)            -55.1527         estimate D2E/DX2                !
 ! D36   D(4,5,6,15)            65.8876         estimate D2E/DX2                !
 ! D37   D(4,5,6,16)          -176.4932         estimate D2E/DX2                !
 ! D38   D(13,5,6,1)          -176.5268         estimate D2E/DX2                !
 ! D39   D(13,5,6,15)          -55.4866         estimate D2E/DX2                !
 ! D40   D(13,5,6,16)           62.1326         estimate D2E/DX2                !
 ! D41   D(14,5,6,1)            65.8893         estimate D2E/DX2                !
 ! D42   D(14,5,6,15)         -173.0704         estimate D2E/DX2                !
 ! D43   D(14,5,6,16)          -55.4512         estimate D2E/DX2                !
 --------------------------------------------------------------------------------
 Trust Radius=3.00D-01 FncErr=1.00D-07 GrdErr=1.00D-06 EigMax=2.50D+02 EigMin=1.00D-04
 Number of steps in this run=     99 maximum allowed number of steps=    100.
 GradGradGradGradGradGradGradGradGradGradGradGradGradGradGradGradGradGrad

 Leave Link  103 at Thu Jun  1 09:10:06 2023, MaxMem=  3145728000 cpu:               0.2 elap:               0.0
 (Enter /share/apps/g16/E6B-113X_avx2/g16/l202.exe)
                          Input orientation:                          
 ---------------------------------------------------------------------
 Center     Atomic      Atomic             Coordinates (Angstroms)
 Number     Number       Type             X           Y           Z
 ---------------------------------------------------------------------
      1          6           0       -1.098706   -3.024963    0.000000
      2          6           0        0.416400   -3.024963    0.000000
      3          6           0        0.968331   -1.613885    0.000000
      4          6           0        0.418668   -0.809348    1.160661
      5          6           0       -1.096457   -0.808687    1.160172
      6          6           0       -1.649257   -2.219308    1.158876
      7          1           0        2.086930   -1.647876    0.062714
      8          1           0        0.788949   -3.570597    0.906562
      9          1           0        0.791694   -3.574822   -0.901910
     10          1           0       -1.471394   -2.591934   -0.965385
     11          1           0       -1.474303   -4.079183    0.063502
     12          1           0        0.794691    0.244789    1.098666
     13          1           0       -1.471777   -0.259259    2.062286
     14          1           0       -1.468312   -0.262086    0.253849
     15          1           0       -1.383253   -2.725030    2.124191
     16          1           0       -2.767805   -2.184247    1.093938
 ---------------------------------------------------------------------
                    Distance matrix (angstroms):
                    1          2          3          4          5
     1  C    0.000000
     2  C    1.515106   0.000000
     3  C    2.502755   1.515180   0.000000
     4  C    2.925493   2.501217   1.515435   0.000000
     5  C    2.501576   2.923459   2.501538   1.515125   0.000000
     6  C    1.514985   2.501802   2.925970   2.502859   1.515071
     7  H    3.471106   2.165865   1.120871   2.166037   3.470246
     8  H    2.163981   1.121768   2.163967   2.797529   3.353688
     9  H    2.165502   1.120996   2.165621   3.470042   3.933039
    10  H    1.121775   2.164081   2.800144   3.357085   2.799739
    11  H    1.120931   2.165680   3.471050   3.934326   3.470100
    12  H    3.934882   3.470079   2.166076   1.120911   2.165649
    13  H    3.470061   3.932856   3.470182   2.165481   1.120958
    14  H    2.799024   3.354112   2.798040   2.163908   1.121816
    15  H    2.164050   2.800160   3.358091   2.800919   2.164245
    16  H    2.165501   3.470254   3.934555   3.471082   2.165631
                    6          7          8          9         10
     6  C    0.000000
     7  H    3.935378   0.000000
     8  H    2.799016   2.468540   0.000000
     9  H    3.470230   2.514211   1.808479   0.000000
    10  H    2.164017   3.822290   3.093722   2.468130   0.000000
    11  H    2.165546   4.312034   2.468141   2.514188   1.808460
    12  H    3.471063   2.515007   3.820223   4.311814   4.176415
    13  H    2.165512   4.311721   4.172714   4.990262   3.822063
    14  H    2.163916   3.820562   4.058018   4.173443   2.629588
    15  H    1.121760   4.177573   2.629841   3.822280   3.093697
    16  H    1.120980   4.991950   3.821986   4.311281   2.467327
                   11         12         13         14         15
    11  H    0.000000
    12  H    4.991656   0.000000
    13  H    4.311260   2.513863   0.000000
    14  H    3.821845   2.468161   1.808443   0.000000
    15  H    2.467480   3.822953   2.468136   3.093785   0.000000
    16  H    2.515100   4.311800   2.514551   2.467617   1.808550
                   16
    16  H    0.000000
 Symmetry turned off by external request.
 Stoichiometry    C6H10
 Framework group  C1[X(C6H10)]
 Deg. of freedom    42
 Full point group                 C1      NOp   1
 Rotational constants (GHZ):           4.6561640           4.5580984           2.5659100
 Leave Link  202 at Thu Jun  1 09:10:06 2023, MaxMem=  3145728000 cpu:               0.1 elap:               0.0
 (Enter /share/apps/g16/E6B-113X_avx2/g16/l301.exe)
 Standard basis: def2SVP (5D, 7F)
 Ernie: Thresh=  0.10000D-02 Tol=  0.10000D-05 Strict=F.
   134 basis functions,   220 primitive gaussians,   140 cartesian basis functions
    23 alpha electrons       23 beta electrons
       nuclear repulsion energy       234.8538832783 Hartrees.
 IExCor= 4639 DFT=T Ex+Corr=wB97XD ExCW=0 ScaHFX=  1.000000
 ScaDFX=  1.000000  1.000000  1.000000  1.000000 ScalE2=  1.000000  1.000000
 IRadAn=      5 IRanWt=     -1 IRanGd=            0 ICorTp=0 IEmpDi=121
 HFx  wShort=  0.000000 wLong=  0.200000 cFull=  0.222036 cShort=  0.000000 cLong=  0.777964
 DFx  wShort=  0.000000 wLong=  0.200000 cFull=  0.000000 cShort=  0.000000 cLong=  1.000000
 NAtoms=   16 NActive=   16 NUniq=   16 SFac= 1.00D+00 NAtFMM=   60 NAOKFM=F Big=F
 Integral buffers will be    131072 words long.
 Raffenetti 2 integral format.
 Two-electron integral symmetry is turned off.
 R6Disp:  Grimme-D2 Dispersion energy=       -0.0087902456 Hartrees.
 Nuclear repulsion after empirical dispersion term =      234.8450930328 Hartrees.
 Leave Link  301 at Thu Jun  1 09:10:06 2023, MaxMem=  3145728000 cpu:               0.7 elap:               0.0
 (Enter /share/apps/g16/E6B-113X_avx2/g16/l302.exe)
 NPDir=0 NMtPBC=     1 NCelOv=     1 NCel=       1 NClECP=     1 NCelD=      1
         NCelK=      1 NCelE2=     1 NClLst=     1 CellRange=     0.0.
 One-electron integrals computed using PRISM.
   1 Symmetry operations used in ECPInt.
 ECPInt:  NShTT=    2211 NPrTT=    7611 LenC2=    2212 LenP2D=    6571.
 LDataN:  DoStor=T MaxTD1= 4 Len=   56
 NBasis=   134 RedAO= T EigKep=  1.66D-03  NBF=   134
 NBsUse=   134 1.00D-06 EigRej= -1.00D+00 NBFU=   134
 Precomputing XC quadrature grid using
 IXCGrd= 4 IRadAn=           5 IRanWt=          -1 IRanGd=           0 AccXCQ= 0.00D+00.
 Generated NRdTot=       0 NPtTot=           0 NUsed=           0 NTot=          32
 NSgBfM=   140   140   140   140   140 MxSgAt=    16 MxSgA2=    16.
 Leave Link  302 at Thu Jun  1 09:10:06 2023, MaxMem=  3145728000 cpu:               3.5 elap:               0.2
 (Enter /share/apps/g16/E6B-113X_avx2/g16/l303.exe)
 DipDrv:  MaxL=1.
 Leave Link  303 at Thu Jun  1 09:10:06 2023, MaxMem=  3145728000 cpu:               0.5 elap:               0.0
 (Enter /share/apps/g16/E6B-113X_avx2/g16/l401.exe)
 ExpMin= 1.22D-01 ExpMax= 1.24D+03 ExpMxC= 1.86D+02 IAcc=3 IRadAn=         5 AccDes= 0.00D+00
 Harris functional with IExCor= 4639 and IRadAn=       5 diagonalized for initial guess.
 HarFok:  IExCor= 4639 AccDes= 0.00D+00 IRadAn=         5 IDoV= 1 UseB2=F ITyADJ=14
 ICtDFT=  3500011 ScaDFX=  1.000000  1.000000  1.000000  1.000000
 FoFCou: FMM=F IPFlag=           0 FMFlag=      100000 FMFlg1=           0
         NFxFlg=           0 DoJE=T BraDBF=F KetDBF=T FulRan=T
         wScrn=  0.000000 ICntrl=       500 IOpCl=  0 I1Cent=   200000004 NGrid=           0
         NMat0=    1 NMatS0=      1 NMatT0=    0 NMatD0=    1 NMtDS0=    0 NMtDT0=    0
 Symmetry not used in FoFCou.
 Harris En= -222.917596610462    
 JPrj=0 DoOrth=F DoCkMO=F.
 Leave Link  401 at Thu Jun  1 09:10:07 2023, MaxMem=  3145728000 cpu:               9.8 elap:               0.4
 (Enter /share/apps/g16/E6B-113X_avx2/g16/l502.exe)
 Two-electron integral symmetry not used.
 Closed shell SCF:
 Using DIIS extrapolation, IDIIS=  1040.
 NGot=  3145728000 LenX=  3145684072 LenY=  3145664031
 Requested convergence on RMS density matrix=1.00D-08 within 128 cycles.
 Requested convergence on MAX density matrix=1.00D-06.
 Requested convergence on             energy=1.00D-06.
 No special actions if energy rises.
 Fock matrices will be formed incrementally for  20 cycles.
 Integral accuracy reduced to 1.0D-05 until final iterations.

 Cycle   1  Pass 0  IDiag  1:
 FoFJK:  IHMeth= 1 ICntrl=       0 DoSepK=T KAlg= 0 I1Cent=           0 FoldK=F
 IRaf=         1 NMat=       1 IRICut=       1 DoRegI=T DoRafI=F ISym2E= 0 IDoP0=0 IntGTp=1.
 FoFCou: FMM=F IPFlag=           0 FMFlag=      100000 FMFlg1=           0
         NFxFlg=           0 DoJE=T BraDBF=F KetDBF=F FulRan=T
         wScrn=  0.000000 ICntrl=       500 IOpCl=  0 I1Cent=           0 NGrid=           0
         NMat0=    1 NMatS0=      1 NMatT0=    0 NMatD0=    1 NMtDS0=    0 NMtDT0=    0
 Symmetry not used in FoFCou.
 E= -234.290558771932    
 DIIS: error= 3.50D-02 at cycle   1 NSaved=   1.
 NSaved= 1 IEnMin= 1 EnMin= -234.290558771932     IErMin= 1 ErrMin= 3.50D-02
 ErrMax= 3.50D-02  0.00D+00 EMaxC= 1.00D-01 BMatC= 9.71D-02 BMatP= 9.71D-02
 IDIUse=3 WtCom= 6.50D-01 WtEn= 3.50D-01
 Coeff-Com:  0.100D+01
 Coeff-En:   0.100D+01
 Coeff:      0.100D+01
 Gap=     0.314 Goal=   None    Shift=    0.000
 GapD=    0.314 DampG=1.000 DampE=0.500 DampFc=0.5000 IDamp=-1.
 Damping current iteration by 5.00D-01
 RMSDP=2.52D-03 MaxDP=5.01D-02              OVMax= 3.93D-02

 Cycle   2  Pass 0  IDiag  1:
 RMSU=  1.25D-03    CP:  9.95D-01
 E= -234.309151590225     Delta-E=       -0.018592818293 Rises=F Damp=T
 DIIS: error= 1.83D-02 at cycle   2 NSaved=   2.
 NSaved= 2 IEnMin= 2 EnMin= -234.309151590225     IErMin= 2 ErrMin= 1.83D-02
 ErrMax= 1.83D-02  0.00D+00 EMaxC= 1.00D-01 BMatC= 2.34D-02 BMatP= 9.71D-02
 IDIUse=3 WtCom= 8.17D-01 WtEn= 1.83D-01
 Coeff-Com: -0.770D+00 0.177D+01
 Coeff-En:   0.000D+00 0.100D+01
 Coeff:     -0.630D+00 0.163D+01
 Gap=     0.320 Goal=   None    Shift=    0.000
 RMSDP=1.39D-03 MaxDP=2.89D-02 DE=-1.86D-02 OVMax= 2.36D-02

 Cycle   3  Pass 0  IDiag  1:
 RMSU=  9.58D-04    CP:  9.93D-01  1.80D+00
 E= -234.325829247927     Delta-E=       -0.016677657702 Rises=F Damp=F
 DIIS: error= 3.52D-03 at cycle   3 NSaved=   3.
 NSaved= 3 IEnMin= 3 EnMin= -234.325829247927     IErMin= 3 ErrMin= 3.52D-03
 ErrMax= 3.52D-03  0.00D+00 EMaxC= 1.00D-01 BMatC= 2.18D-03 BMatP= 2.34D-02
 IDIUse=3 WtCom= 9.65D-01 WtEn= 3.52D-02
 Coeff-Com: -0.344D+00 0.686D+00 0.658D+00
 Coeff-En:   0.000D+00 0.000D+00 0.100D+01
 Coeff:     -0.332D+00 0.662D+00 0.670D+00
 Gap=     0.317 Goal=   None    Shift=    0.000
 RMSDP=3.70D-04 MaxDP=6.69D-03 DE=-1.67D-02 OVMax= 8.77D-03

 Cycle   4  Pass 0  IDiag  1:
 RMSU=  1.51D-04    CP:  9.92D-01  1.94D+00  7.02D-01
 E= -234.328056373194     Delta-E=       -0.002227125267 Rises=F Damp=F
 DIIS: error= 4.24D-04 at cycle   4 NSaved=   4.
 NSaved= 4 IEnMin= 4 EnMin= -234.328056373194     IErMin= 4 ErrMin= 4.24D-04
 ErrMax= 4.24D-04  0.00D+00 EMaxC= 1.00D-01 BMatC= 1.52D-05 BMatP= 2.18D-03
 IDIUse=3 WtCom= 9.96D-01 WtEn= 4.24D-03
 Coeff-Com: -0.179D-01 0.328D-01 0.848D-01 0.900D+00
 Coeff-En:   0.000D+00 0.000D+00 0.000D+00 0.100D+01
 Coeff:     -0.178D-01 0.326D-01 0.844D-01 0.901D+00
 Gap=     0.317 Goal=   None    Shift=    0.000
 RMSDP=7.08D-05 MaxDP=8.73D-04 DE=-2.23D-03 OVMax= 1.15D-03

 Cycle   5  Pass 0  IDiag  1:
 RMSU=  5.49D-05    CP:  9.92D-01  1.95D+00  7.38D-01  1.17D+00
 E= -234.328076282550     Delta-E=       -0.000019909357 Rises=F Damp=F
 DIIS: error= 1.18D-04 at cycle   5 NSaved=   5.
 NSaved= 5 IEnMin= 5 EnMin= -234.328076282550     IErMin= 5 ErrMin= 1.18D-04
 ErrMax= 1.18D-04  0.00D+00 EMaxC= 1.00D-01 BMatC= 1.60D-06 BMatP= 1.52D-05
 IDIUse=3 WtCom= 9.99D-01 WtEn= 1.18D-03
 Coeff-Com:  0.259D-01-0.517D-01-0.364D-01 0.213D+00 0.850D+00
 Coeff-En:   0.000D+00 0.000D+00 0.000D+00 0.000D+00 0.100D+01
 Coeff:      0.259D-01-0.516D-01-0.363D-01 0.212D+00 0.850D+00
 Gap=     0.317 Goal=   None    Shift=    0.000
 RMSDP=1.97D-05 MaxDP=3.33D-04 DE=-1.99D-05 OVMax= 6.69D-04

 Cycle   6  Pass 0  IDiag  1:
 RMSU=  1.43D-05    CP:  9.92D-01  1.95D+00  7.42D-01  1.24D+00  1.08D+00
 E= -234.328078906222     Delta-E=       -0.000002623672 Rises=F Damp=F
 DIIS: error= 2.74D-05 at cycle   6 NSaved=   6.
 NSaved= 6 IEnMin= 6 EnMin= -234.328078906222     IErMin= 6 ErrMin= 2.74D-05
 ErrMax= 2.74D-05  0.00D+00 EMaxC= 1.00D-01 BMatC= 1.61D-07 BMatP= 1.60D-06
 IDIUse=1 WtCom= 1.00D+00 WtEn= 0.00D+00
 Coeff-Com:  0.924D-02-0.183D-01-0.183D-01-0.214D-01 0.240D+00 0.809D+00
 Coeff:      0.924D-02-0.183D-01-0.183D-01-0.214D-01 0.240D+00 0.809D+00
 Gap=     0.317 Goal=   None    Shift=    0.000
 RMSDP=6.04D-06 MaxDP=1.46D-04 DE=-2.62D-06 OVMax= 2.36D-04

 Initial convergence to 1.0D-05 achieved.  Increase integral accuracy.
 Cycle   7  Pass 1  IDiag  1:
 E= -234.328167242569     Delta-E=       -0.000088336347 Rises=F Damp=F
 DIIS: error= 2.74D-05 at cycle   1 NSaved=   1.
 NSaved= 1 IEnMin= 1 EnMin= -234.328167242569     IErMin= 1 ErrMin= 2.74D-05
 ErrMax= 2.74D-05  0.00D+00 EMaxC= 1.00D-01 BMatC= 9.12D-08 BMatP= 9.12D-08
 IDIUse=1 WtCom= 1.00D+00 WtEn= 0.00D+00
 Coeff-Com:  0.100D+01
 Coeff:      0.100D+01
 Gap=     0.317 Goal=   None    Shift=    0.000
 RMSDP=6.04D-06 MaxDP=1.46D-04 DE=-8.83D-05 OVMax= 1.39D-04

 Cycle   8  Pass 1  IDiag  1:
 RMSU=  4.09D-06    CP:  1.00D+00
 E= -234.328167378060     Delta-E=       -0.000000135491 Rises=F Damp=F
 DIIS: error= 7.39D-06 at cycle   2 NSaved=   2.
 NSaved= 2 IEnMin= 2 EnMin= -234.328167378060     IErMin= 2 ErrMin= 7.39D-06
 ErrMax= 7.39D-06  0.00D+00 EMaxC= 1.00D-01 BMatC= 4.57D-09 BMatP= 9.12D-08
 IDIUse=1 WtCom= 1.00D+00 WtEn= 0.00D+00
 Coeff-Com: -0.881D-01 0.109D+01
 Coeff:     -0.881D-01 0.109D+01
 Gap=     0.317 Goal=   None    Shift=    0.000
 RMSDP=1.64D-06 MaxDP=3.76D-05 DE=-1.35D-07 OVMax= 7.58D-05

 Cycle   9  Pass 1  IDiag  1:
 RMSU=  1.20D-06    CP:  1.00D+00  1.27D+00
 E= -234.328167392070     Delta-E=       -0.000000014011 Rises=F Damp=F
 DIIS: error= 3.90D-06 at cycle   3 NSaved=   3.
 NSaved= 3 IEnMin= 3 EnMin= -234.328167392070     IErMin= 3 ErrMin= 3.90D-06
 ErrMax= 3.90D-06  0.00D+00 EMaxC= 1.00D-01 BMatC= 3.12D-09 BMatP= 4.57D-09
 IDIUse=1 WtCom= 1.00D+00 WtEn= 0.00D+00
 Coeff-Com: -0.725D-01 0.508D+00 0.565D+00
 Coeff:     -0.725D-01 0.508D+00 0.565D+00
 Gap=     0.317 Goal=   None    Shift=    0.000
 RMSDP=5.75D-07 MaxDP=2.03D-05 DE=-1.40D-08 OVMax= 3.58D-05

 Cycle  10  Pass 1  IDiag  1:
 RMSU=  5.22D-07    CP:  1.00D+00  1.33D+00  9.36D-01
 E= -234.328167396459     Delta-E=       -0.000000004388 Rises=F Damp=F
 DIIS: error= 2.58D-06 at cycle   4 NSaved=   4.
 NSaved= 4 IEnMin= 4 EnMin= -234.328167396459     IErMin= 4 ErrMin= 2.58D-06
 ErrMax= 2.58D-06  0.00D+00 EMaxC= 1.00D-01 BMatC= 6.05D-10 BMatP= 3.12D-09
 IDIUse=1 WtCom= 1.00D+00 WtEn= 0.00D+00
 Coeff-Com:  0.153D-02-0.165D+00 0.238D+00 0.926D+00
 Coeff:      0.153D-02-0.165D+00 0.238D+00 0.926D+00
 Gap=     0.317 Goal=   None    Shift=    0.000
 RMSDP=4.27D-07 MaxDP=1.29D-05 DE=-4.39D-09 OVMax= 3.05D-05

 Cycle  11  Pass 1  IDiag  1:
 RMSU=  1.91D-07    CP:  1.00D+00  1.38D+00  1.20D+00  1.12D+00
 E= -234.328167398316     Delta-E=       -0.000000001858 Rises=F Damp=F
 DIIS: error= 9.90D-07 at cycle   5 NSaved=   5.
 NSaved= 5 IEnMin= 5 EnMin= -234.328167398316     IErMin= 5 ErrMin= 9.90D-07
 ErrMax= 9.90D-07  0.00D+00 EMaxC= 1.00D-01 BMatC= 7.60D-11 BMatP= 6.05D-10
 IDIUse=1 WtCom= 1.00D+00 WtEn= 0.00D+00
 Coeff-Com:  0.155D-01-0.156D+00-0.369D-01 0.279D+00 0.898D+00
 Coeff:      0.155D-01-0.156D+00-0.369D-01 0.279D+00 0.898D+00
 Gap=     0.317 Goal=   None    Shift=    0.000
 RMSDP=1.92D-07 MaxDP=4.49D-06 DE=-1.86D-09 OVMax= 1.53D-05

 Cycle  12  Pass 1  IDiag  1:
 RMSU=  7.81D-08    CP:  1.00D+00  1.40D+00  1.28D+00  1.29D+00  1.18D+00
 E= -234.328167398600     Delta-E=       -0.000000000283 Rises=F Damp=F
 DIIS: error= 3.36D-07 at cycle   6 NSaved=   6.
 NSaved= 6 IEnMin= 6 EnMin= -234.328167398600     IErMin= 6 ErrMin= 3.36D-07
 ErrMax= 3.36D-07  0.00D+00 EMaxC= 1.00D-01 BMatC= 7.24D-12 BMatP= 7.60D-11
 IDIUse=1 WtCom= 1.00D+00 WtEn= 0.00D+00
 Coeff-Com:  0.463D-02-0.269D-01-0.414D-01-0.340D-01 0.265D+00 0.833D+00
 Coeff:      0.463D-02-0.269D-01-0.414D-01-0.340D-01 0.265D+00 0.833D+00
 Gap=     0.317 Goal=   None    Shift=    0.000
 RMSDP=5.03D-08 MaxDP=1.12D-06 DE=-2.83D-10 OVMax= 4.53D-06

 Cycle  13  Pass 1  IDiag  1:
 RMSU=  2.40D-08    CP:  1.00D+00  1.41D+00  1.30D+00  1.32D+00  1.31D+00
                    CP:  1.11D+00
 E= -234.328167398622     Delta-E=       -0.000000000023 Rises=F Damp=F
 DIIS: error= 7.13D-08 at cycle   7 NSaved=   7.
 NSaved= 7 IEnMin= 7 EnMin= -234.328167398622     IErMin= 7 ErrMin= 7.13D-08
 ErrMax= 7.13D-08  0.00D+00 EMaxC= 1.00D-01 BMatC= 2.97D-13 BMatP= 7.24D-12
 IDIUse=1 WtCom= 1.00D+00 WtEn= 0.00D+00
 Coeff-Com: -0.108D-02 0.113D-01 0.284D-02-0.203D-01-0.699D-01 0.207D-03
 Coeff-Com:  0.108D+01
 Coeff:     -0.108D-02 0.113D-01 0.284D-02-0.203D-01-0.699D-01 0.207D-03
 Coeff:      0.108D+01
 Gap=     0.317 Goal=   None    Shift=    0.000
 RMSDP=1.53D-08 MaxDP=1.98D-07 DE=-2.26D-11 OVMax= 1.25D-06

 Cycle  14  Pass 1  IDiag  1:
 RMSU=  5.57D-09    CP:  1.00D+00  1.41D+00  1.30D+00  1.32D+00  1.35D+00
                    CP:  1.24D+00  1.25D+00
 E= -234.328167398623     Delta-E=       -0.000000000001 Rises=F Damp=F
 DIIS: error= 1.71D-08 at cycle   8 NSaved=   8.
 NSaved= 8 IEnMin= 8 EnMin= -234.328167398623     IErMin= 8 ErrMin= 1.71D-08
 ErrMax= 1.71D-08  0.00D+00 EMaxC= 1.00D-01 BMatC= 2.40D-14 BMatP= 2.97D-13
 IDIUse=1 WtCom= 1.00D+00 WtEn= 0.00D+00
 Coeff-Com: -0.415D-03 0.274D-02 0.325D-02 0.628D-03-0.241D-01-0.606D-01
 Coeff-Com:  0.615D-01 0.102D+01
 Coeff:     -0.415D-03 0.274D-02 0.325D-02 0.628D-03-0.241D-01-0.606D-01
 Coeff:      0.615D-01 0.102D+01
 Gap=     0.317 Goal=   None    Shift=    0.000
 RMSDP=4.35D-09 MaxDP=5.24D-08 DE=-9.09D-13 OVMax= 3.05D-07

 SCF Done:  E(RwB97XD) =  -234.328167399     A.U. after   14 cycles
            NFock= 14  Conv=0.43D-08     -V/T= 2.0139
 KE= 2.311199506536D+02 PE=-1.010314195131D+03 EE= 3.100209840464D+02
 Leave Link  502 at Thu Jun  1 09:10:15 2023, MaxMem=  3145728000 cpu:             198.6 elap:               8.4
 (Enter /share/apps/g16/E6B-113X_avx2/g16/l601.exe)
 Copying SCF densities to generalized density rwf, IOpCl= 0 IROHF=0.

 **********************************************************************

            Population analysis using the SCF density.

 **********************************************************************

 Alpha  occ. eigenvalues --  -10.31552 -10.31536 -10.29806 -10.29805 -10.29252
 Alpha  occ. eigenvalues --  -10.29241  -0.92572  -0.83300  -0.81972  -0.68440
 Alpha  occ. eigenvalues --   -0.68249  -0.60044  -0.57004  -0.52403  -0.51418
 Alpha  occ. eigenvalues --   -0.46669  -0.46418  -0.46221  -0.46023  -0.40516
 Alpha  occ. eigenvalues --   -0.37925  -0.37698  -0.31488
 Alpha virt. eigenvalues --    0.00255   0.13484   0.15866   0.17598   0.18101
 Alpha virt. eigenvalues --    0.21295   0.21334   0.22031   0.22204   0.23127
 Alpha virt. eigenvalues --    0.23813   0.30348   0.30840   0.32242   0.32944
 Alpha virt. eigenvalues --    0.34155   0.37317   0.50125   0.51007   0.52581
 Alpha virt. eigenvalues --    0.53079   0.54207   0.59204   0.59332   0.61000
 Alpha virt. eigenvalues --    0.66260   0.69680   0.70450   0.71285   0.71413
 Alpha virt. eigenvalues --    0.73088   0.74126   0.75838   0.75917   0.76533
 Alpha virt. eigenvalues --    0.77468   0.77858   0.78809   0.79146   0.80487
 Alpha virt. eigenvalues --    0.80730   0.80975   0.81859   0.86071   0.87101
 Alpha virt. eigenvalues --    0.96489   1.00633   1.07601   1.16384   1.21713
 Alpha virt. eigenvalues --    1.22578   1.25119   1.29506   1.34985   1.41713
 Alpha virt. eigenvalues --    1.47564   1.47762   1.60111   1.65498   1.66129
 Alpha virt. eigenvalues --    1.72505   1.76773   1.77989   1.82770   1.83496
 Alpha virt. eigenvalues --    1.83680   1.86972   1.86978   1.87287   1.88262
 Alpha virt. eigenvalues --    1.92002   1.92152   1.92441   1.93197   1.94966
 Alpha virt. eigenvalues --    1.97091   1.97184   1.98739   2.01117   2.06252
 Alpha virt. eigenvalues --    2.08858   2.10483   2.14715   2.15318   2.15352
 Alpha virt. eigenvalues --    2.20578   2.28929   2.32111   2.37141   2.40802
 Alpha virt. eigenvalues --    2.45792   2.49957   2.52482   2.57423   2.57842
 Alpha virt. eigenvalues --    2.59580   2.67245   2.67368   2.68027   2.69920
 Alpha virt. eigenvalues --    2.84397   2.91820   2.95516   2.98337   2.99096
 Alpha virt. eigenvalues --    3.04820   3.05017   3.09354   3.10337   3.11407
 Alpha virt. eigenvalues --    3.18928
          Condensed to atoms (all electrons):
               1          2          3          4          5          6
     1  C    4.697578   0.413535  -0.049410  -0.031499  -0.055016   0.406307
     2  C    0.413535   4.716100   0.397759  -0.061612  -0.025068  -0.055000
     3  C   -0.049410   0.397759   4.987419   0.556026  -0.061599  -0.031516
     4  C   -0.031499  -0.061612   0.556026   4.987489   0.397811  -0.049444
     5  C   -0.055016  -0.025068  -0.061599   0.397811   4.716046   0.413515
     6  C    0.406307  -0.055000  -0.031516  -0.049444   0.413515   4.697564
     7  H    0.007260  -0.037208   0.365613  -0.022025   0.007128   0.000519
     8  H   -0.012935   0.373814  -0.013343  -0.018222  -0.003423  -0.006731
     9  H   -0.023896   0.373493  -0.030096   0.008986   0.000223   0.008814
    10  H    0.383819  -0.028768  -0.003477  -0.004114  -0.005719  -0.027221
    11  H    0.373456  -0.020323   0.007848   0.000350   0.008452  -0.022674
    12  H    0.000518   0.007131  -0.022039   0.365609  -0.037222   0.007266
    13  H    0.008817   0.000222   0.008984  -0.030085   0.373503  -0.023916
    14  H   -0.006734  -0.003421  -0.018208  -0.013349   0.373800  -0.012909
    15  H   -0.027230  -0.005730  -0.004099  -0.003483  -0.028742   0.383846
    16  H   -0.022664   0.008454   0.000348   0.007848  -0.020318   0.373433
               7          8          9         10         11         12
     1  C    0.007260  -0.012935  -0.023896   0.383819   0.373456   0.000518
     2  C   -0.037208   0.373814   0.373493  -0.028768  -0.020323   0.007131
     3  C    0.365613  -0.013343  -0.030096  -0.003477   0.007848  -0.022039
     4  C   -0.022025  -0.018222   0.008986  -0.004114   0.000350   0.365609
     5  C    0.007128  -0.003423   0.000223  -0.005719   0.008452  -0.037222
     6  C    0.000519  -0.006731   0.008814  -0.027221  -0.022674   0.007266
     7  H    0.646200  -0.003220  -0.005415   0.000089  -0.000370  -0.007703
     8  H   -0.003220   0.652532  -0.026593   0.007730  -0.007529   0.000355
     9  H   -0.005415  -0.026593   0.669752  -0.008154  -0.005299  -0.000399
    10  H    0.000089   0.007730  -0.008154   0.678305  -0.026794   0.000036
    11  H   -0.000370  -0.007529  -0.005299  -0.026794   0.672868   0.000045
    12  H   -0.007703   0.000355  -0.000399   0.000036   0.000045   0.646246
    13  H   -0.000399   0.000119   0.000035   0.000002  -0.000313  -0.005419
    14  H    0.000355  -0.000086   0.000119   0.004324  -0.000185  -0.003226
    15  H    0.000037   0.004325   0.000002   0.008050  -0.008476   0.000088
    16  H    0.000045  -0.000185  -0.000313  -0.008479  -0.004926  -0.000371
              13         14         15         16
     1  C    0.008817  -0.006734  -0.027230  -0.022664
     2  C    0.000222  -0.003421  -0.005730   0.008454
     3  C    0.008984  -0.018208  -0.004099   0.000348
     4  C   -0.030085  -0.013349  -0.003483   0.007848
     5  C    0.373503   0.373800  -0.028742  -0.020318
     6  C   -0.023916  -0.012909   0.383846   0.373433
     7  H   -0.000399   0.000355   0.000037   0.000045
     8  H    0.000119  -0.000086   0.004325  -0.000185
     9  H    0.000035   0.000119   0.000002  -0.000313
    10  H    0.000002   0.004324   0.008050  -0.008479
    11  H   -0.000313  -0.000185  -0.008476  -0.004926
    12  H   -0.005419  -0.003226   0.000088  -0.000371
    13  H    0.669737  -0.026585  -0.008161  -0.005286
    14  H   -0.026585   0.652515   0.007727  -0.007546
    15  H   -0.008161   0.007727   0.678240  -0.026789
    16  H   -0.005286  -0.007546  -0.026789   0.672861
 Mulliken charges:
               1
     1  C   -0.061906
     2  C   -0.053378
     3  C   -0.090209
     4  C   -0.090285
     5  C   -0.053369
     6  C   -0.061853
     7  H    0.049094
     8  H    0.053392
     9  H    0.038742
    10  H    0.030372
    11  H    0.033872
    12  H    0.049086
    13  H    0.038747
    14  H    0.053410
    15  H    0.030397
    16  H    0.033888
 Sum of Mulliken charges =   0.00000
 Mulliken charges with hydrogens summed into heavy atoms:
               1
     1  C    0.002338
     2  C    0.038756
     3  C   -0.041115
     4  C   -0.041199
     5  C    0.038787
     6  C    0.002432
 Electronic spatial extent (au):  <R**2>=           1256.3719
 Charge=              0.0000 electrons
 Dipole moment (field-independent basis, Debye):
    X=             -0.3350    Y=             -0.2281    Z=              0.0002  Tot=              0.4053
 Quadrupole moment (field-independent basis, Debye-Ang):
   XX=            -38.5233   YY=            -37.1850   ZZ=            -39.5497
   XY=             -0.1645   XZ=             -0.3041   YZ=              0.0284
 Traceless Quadrupole moment (field-independent basis, Debye-Ang):
   XX=             -0.1040   YY=              1.2343   ZZ=             -1.1303
   XY=             -0.1645   XZ=             -0.3041   YZ=              0.0284
 Octapole moment (field-independent basis, Debye-Ang**2):
  XXX=             44.5836  YYY=            220.3770  ZZZ=            -68.8082  XYY=             16.3366
  XXY=             74.9495  XXZ=            -23.5211  XZZ=             12.8811  YZZ=             75.6944
  YYZ=            -20.9255  XYZ=              0.5526
 Hexadecapole moment (field-independent basis, Debye-Ang**3):
 XXXX=           -347.3335 YYYY=          -1155.8410 ZZZZ=           -232.8731 XXXY=           -102.0250
 XXXZ=             58.5062 YYYX=           -102.2337 YYYZ=             75.1947 ZZZX=             54.4460
 ZZZY=             84.9567 XXYY=           -255.5397 XXZZ=           -101.1866 YYZZ=           -231.7105
 XXYZ=             29.4219 YYXZ=             18.6119 ZZXY=            -33.2990
 N-N= 2.348450930328D+02 E-N=-1.010314196939D+03  KE= 2.311199506536D+02
 No NMR shielding tensors so no spin-rotation constants.
 Leave Link  601 at Thu Jun  1 09:10:15 2023, MaxMem=  3145728000 cpu:               2.2 elap:               0.1
 (Enter /share/apps/g16/E6B-113X_avx2/g16/l701.exe)
 ... and contract with generalized density number  0.
 Compute integral first derivatives.
 R6Disp: Adding Grimme-D2 dispersion energy 1st derivatives to the gradient.
   1 Symmetry operations used in ECPInt.
 ECPInt:  NShTT=    2211 NPrTT=    7611 LenC2=    2212 LenP2D=    6571.
 LDataN:  DoStor=T MaxTD1= 5 Len=  102
 Leave Link  701 at Thu Jun  1 09:10:15 2023, MaxMem=  3145728000 cpu:               3.0 elap:               0.1
 (Enter /share/apps/g16/E6B-113X_avx2/g16/l702.exe)
 L702 exits ... SP integral derivatives will be done elsewhere.
 Leave Link  702 at Thu Jun  1 09:10:15 2023, MaxMem=  3145728000 cpu:               0.2 elap:               0.0
 (Enter /share/apps/g16/E6B-113X_avx2/g16/l703.exe)
 Integral derivatives from FoFJK, PRISM(SPDF).
 Compute integral first derivatives, UseDBF=F ICtDFT=           0.
 Calling FoFJK, ICntrl=      2127 FMM=F ISym2X=0 I1Cent= 0 IOpClX= 0 NMat=1 NMatS=1 NMatT=0.
 FoFJK:  IHMeth= 1 ICntrl=    2127 DoSepK=T KAlg= 0 I1Cent=           0 FoldK=F
 IRaf=         1 NMat=       1 IRICut=       1 DoRegI=T DoRafI=F ISym2E= 0 IDoP0=0 IntGTp=1.
 FoFCou: FMM=F IPFlag=           0 FMFlag=      100000 FMFlg1=         800
         NFxFlg=           0 DoJE=F BraDBF=F KetDBF=F FulRan=T
         wScrn=  0.000000 ICntrl=      2527 IOpCl=  0 I1Cent=           0 NGrid=           0
         NMat0=    1 NMatS0=      1 NMatT0=    0 NMatD0=    1 NMtDS0=    0 NMtDT0=    0
 Symmetry not used in FoFCou.
 Leave Link  703 at Thu Jun  1 09:10:17 2023, MaxMem=  3145728000 cpu:              37.0 elap:               1.6
 (Enter /share/apps/g16/E6B-113X_avx2/g16/l716.exe)
 Dipole        =-1.31798337D-01-8.97385793D-02 9.28402233D-05
 -------------------------------------------------------------------
 Center     Atomic                   Forces (Hartrees/Bohr)
 Number     Number              X              Y              Z
 -------------------------------------------------------------------
      1        6          -0.011410335   -0.014322339   -0.009039421
      2        6           0.002109050   -0.009946691   -0.027242542
      3        6           0.008008858    0.008493442    0.146066783
      4        6           0.010971784    0.004506888   -0.146034943
      5        6          -0.008529811    0.005569111    0.027208248
      6        6          -0.017533177   -0.005411380    0.008970823
      7        1          -0.008728456    0.013082937   -0.021105153
      8        1           0.000049767    0.005553505   -0.011442846
      9        1          -0.003247112    0.002371062    0.010307236
     10        1           0.003203347   -0.005332372    0.009006433
     11        1           0.002459020    0.011036996   -0.003089786
     12        1           0.008995408   -0.012928402    0.021104919
     13        1           0.001021785   -0.003868380   -0.010290366
     14        1           0.005207246   -0.001995965    0.011458296
     15        1          -0.003774064    0.004939156   -0.008997390
     16        1           0.011196691   -0.001747569    0.003119708
 -------------------------------------------------------------------
 Cartesian Forces:  Max     0.146066783 RMS     0.031600432
 Leave Link  716 at Thu Jun  1 09:10:17 2023, MaxMem=  3145728000 cpu:               0.3 elap:               0.0
 (Enter /share/apps/g16/E6B-113X_avx2/g16/l103.exe)

 GradGradGradGradGradGradGradGradGradGradGradGradGradGradGradGradGradGrad
 Berny optimization.
 FormGI is forming the generalized inverse of G from B-inverse, IUseBI=4.
 Internal  Forces:  Max     0.089839354 RMS     0.012535570
 Search for a local minimum.
 Step number   1 out of a maximum of   99
 All quantities printed in internal units (Hartrees-Bohrs-Radians)
 RMS Force = .12536D-01 SwitMx=.10000D-02 MixMth= 1
 Mixed Optimization -- RFO/linear search
 Second derivative matrix not updated -- first step.
 ITU=  0
     Eigenvalues ---    0.00782   0.00788   0.01034   0.01944   0.02264
     Eigenvalues ---    0.03475   0.03588   0.04529   0.04560   0.05073
     Eigenvalues ---    0.05381   0.05997   0.06154   0.06941   0.08186
     Eigenvalues ---    0.08188   0.08451   0.08592   0.09179   0.09189
     Eigenvalues ---    0.11648   0.12218   0.12446   0.16353   0.16457
     Eigenvalues ---    0.22368   0.29346   0.29405   0.29527   0.30833
     Eigenvalues ---    0.30841   0.30842   0.31380   0.31384   0.31385
     Eigenvalues ---    0.31386   0.31463   0.31465   0.31467   0.31470
     Eigenvalues ---    0.31472   0.31476
 RFO step:  Lambda=-6.39259200D-02 EMin= 7.82416680D-03
 Linear search not attempted -- first point.
 Maximum step size (   0.300) exceeded in Quadratic search.
    -- Step size scaled by   0.820
 Iteration  1 RMS(Cart)=  0.03752987 RMS(Int)=  0.00473910
 Iteration  2 RMS(Cart)=  0.00471145 RMS(Int)=  0.00295493
 Iteration  3 RMS(Cart)=  0.00001528 RMS(Int)=  0.00295490
 Iteration  4 RMS(Cart)=  0.00000004 RMS(Int)=  0.00295490
 ITry= 1 IFail=0 DXMaxC= 1.75D-01 DCOld= 1.00D+10 DXMaxT= 3.00D-01 DXLimC= 3.00D+00 Rises=F
 Variable       Old X    -DE/DX   Delta X   Delta X   Delta X     New X
                                 (Linear)    (Quad)   (Total)
    R1        2.86314   0.01177   0.00000   0.02543   0.02440   2.88753
    R2        2.86291   0.00972   0.00000   0.02309   0.02269   2.88559
    R3        2.11985  -0.01087   0.00000  -0.02360  -0.02360   2.09625
    R4        2.11825  -0.01138   0.00000  -0.02464  -0.02464   2.09361
    R5        2.86327   0.00636   0.00000   0.01448   0.01543   2.87870
    R6        2.11983  -0.01193   0.00000  -0.02590  -0.02590   2.09394
    R7        2.11838  -0.01054   0.00000  -0.02283  -0.02283   2.09554
    R8        2.86376  -0.08984   0.00000  -0.19968  -0.19904   2.66472
    R9        2.11814  -0.01029   0.00000  -0.02227  -0.02227   2.09586
   R10        2.86317   0.00638   0.00000   0.01453   0.01547   2.87864
   R11        2.11821  -0.01031   0.00000  -0.02232  -0.02232   2.09590
   R12        2.86307   0.01179   0.00000   0.02548   0.02445   2.88752
   R13        2.11830  -0.01052   0.00000  -0.02278  -0.02278   2.09552
   R14        2.11992  -0.01196   0.00000  -0.02595  -0.02595   2.09397
   R15        2.11982  -0.01086   0.00000  -0.02358  -0.02358   2.09624
   R16        2.11834  -0.01141   0.00000  -0.02471  -0.02471   2.09364
    A1        1.94271  -0.00907   0.00000  -0.01064  -0.01196   1.93075
    A2        1.90946   0.00551   0.00000   0.01305   0.01170   1.92117
    A3        1.91248   0.00035   0.00000  -0.00410  -0.00193   1.91055
    A4        1.90952  -0.00019   0.00000  -0.00527  -0.00388   1.90563
    A5        1.91244   0.00616   0.00000   0.01484   0.01429   1.92674
    A6        1.87599  -0.00253   0.00000  -0.00778  -0.00798   1.86801
    A7        1.94364   0.00158   0.00000   0.01491   0.01092   1.95456
    A8        1.90933   0.00038   0.00000  -0.00481  -0.00381   1.90553
    A9        1.91217   0.00120   0.00000   0.01094   0.01165   1.92383
   A10        1.90923  -0.00553   0.00000  -0.02874  -0.02665   1.88258
   A11        1.91225   0.00405   0.00000   0.01967   0.01962   1.93187
   A12        1.87595  -0.00182   0.00000  -0.01309  -0.01343   1.86252
   A13        1.94153   0.01936   0.00000   0.08980   0.08287   2.02440
   A14        1.91271   0.00728   0.00000   0.07544   0.06534   1.97804
   A15        1.91264   0.00300   0.00000   0.06265   0.05077   1.96340
   A16        1.94195   0.01933   0.00000   0.08966   0.08273   2.02469
   A17        1.91265   0.00301   0.00000   0.06268   0.05080   1.96345
   A18        1.91244   0.00729   0.00000   0.07551   0.06541   1.97785
   A19        1.94385   0.00158   0.00000   0.01488   0.01089   1.95474
   A20        1.91216   0.00403   0.00000   0.01962   0.01957   1.93173
   A21        1.90917  -0.00553   0.00000  -0.02874  -0.02665   1.88251
   A22        1.91227   0.00122   0.00000   0.01097   0.01168   1.92395
   A23        1.90924   0.00038   0.00000  -0.00477  -0.00377   1.90547
   A24        1.87588  -0.00182   0.00000  -0.01307  -0.01342   1.86246
   A25        1.94248  -0.00905   0.00000  -0.01057  -0.01189   1.93060
   A26        1.90958  -0.00017   0.00000  -0.00524  -0.00386   1.90572
   A27        1.91233   0.00615   0.00000   0.01482   0.01427   1.92661
   A28        1.90974   0.00550   0.00000   0.01298   0.01162   1.92136
   A29        1.91241   0.00035   0.00000  -0.00408  -0.00192   1.91049
   A30        1.87608  -0.00253   0.00000  -0.00779  -0.00799   1.86809
    D1       -0.96330   0.00792   0.00000   0.04582   0.04447  -0.91883
    D2        1.14929   0.00226   0.00000   0.01622   0.01558   1.16487
    D3       -3.08159   0.00098   0.00000   0.00394   0.00383  -3.07776
    D4        1.14914   0.00550   0.00000   0.04105   0.03960   1.18875
    D5       -3.02145  -0.00015   0.00000   0.01146   0.01071  -3.01074
    D6       -0.96914  -0.00143   0.00000  -0.00082  -0.00104  -0.97018
    D7       -3.08143   0.00587   0.00000   0.03688   0.03564  -3.04579
    D8       -0.96884   0.00022   0.00000   0.00728   0.00675  -0.96209
    D9        1.08347  -0.00107   0.00000  -0.00499  -0.00500   1.07847
   D10        0.96137   0.00387   0.00000   0.02805   0.02474   0.98611
   D11       -1.15128   0.00295   0.00000   0.02212   0.02040  -1.13087
   D12        3.07920   0.00253   0.00000   0.02598   0.02406   3.10326
   D13       -1.15104   0.00295   0.00000   0.02209   0.02036  -1.13068
   D14        3.01950   0.00203   0.00000   0.01616   0.01603   3.03553
   D15        0.96679   0.00161   0.00000   0.02002   0.01968   0.98647
   D16        3.07952   0.00253   0.00000   0.02593   0.02400   3.10353
   D17        0.96688   0.00161   0.00000   0.02001   0.01967   0.98654
   D18       -1.08583   0.00119   0.00000   0.02387   0.02332  -1.06251
   D19        0.96442  -0.01553   0.00000  -0.13866  -0.14074   0.82368
   D20        3.08217   0.00578   0.00000   0.04940   0.05171   3.13388
   D21       -1.14823  -0.01333   0.00000  -0.12306  -0.12522  -1.27345
   D22        0.96952   0.00797   0.00000   0.06500   0.06723   1.03675
   D23        3.08266  -0.01025   0.00000  -0.10187  -0.10457   2.97809
   D24       -1.08277   0.01106   0.00000   0.08619   0.08787  -0.99490
   D25       -0.96406   0.02326   0.00000   0.18457   0.18883  -0.77524
   D26       -3.08180  -0.00055   0.00000  -0.01105  -0.01041  -3.09221
   D27       -3.08185  -0.00054   0.00000  -0.01095  -0.01032  -3.09217
   D28        1.08359  -0.02436   0.00000  -0.20657  -0.20956   0.87404
   D29        0.96409  -0.01554   0.00000  -0.13872  -0.14079   0.82329
   D30        3.08253  -0.01026   0.00000  -0.10193  -0.10464   2.97789
   D31       -1.14854  -0.01335   0.00000  -0.12313  -0.12529  -1.27383
   D32        3.08195   0.00577   0.00000   0.04938   0.05169   3.13364
   D33       -1.08279   0.01106   0.00000   0.08617   0.08785  -0.99494
   D34        0.96933   0.00797   0.00000   0.06497   0.06719   1.03652
   D35       -0.96260   0.00790   0.00000   0.04572   0.04437  -0.91822
   D36        1.14995   0.00549   0.00000   0.04097   0.03952   1.18948
   D37       -3.08039   0.00585   0.00000   0.03675   0.03551  -3.04488
   D38       -3.08097   0.00097   0.00000   0.00389   0.00378  -3.07720
   D39       -0.96842  -0.00143   0.00000  -0.00085  -0.00107  -0.96949
   D40        1.08442  -0.00107   0.00000  -0.00508  -0.00508   1.07933
   D41        1.14999   0.00225   0.00000   0.01612   0.01548   1.16546
   D42       -3.02065  -0.00016   0.00000   0.01138   0.01063  -3.01002
   D43       -0.96781   0.00020   0.00000   0.00715   0.00661  -0.96119
         Item               Value     Threshold  Converged?
 Maximum Force            0.089839     0.000450     NO 
 RMS     Force            0.012536     0.000300     NO 
 Maximum Displacement     0.174577     0.001800     NO 
 RMS     Displacement     0.038334     0.001200     NO 
 Predicted change in Energy=-4.105856D-02
 Lowest energy point so far.  Saving SCF results.
 GradGradGradGradGradGradGradGradGradGradGradGradGradGradGradGradGradGrad

 Leave Link  103 at Thu Jun  1 09:10:17 2023, MaxMem=  3145728000 cpu:               1.1 elap:               0.1
 (Enter /share/apps/g16/E6B-113X_avx2/g16/l202.exe)
                          Input orientation:                          
 ---------------------------------------------------------------------
 Center     Atomic      Atomic             Coordinates (Angstroms)
 Number     Number       Type             X           Y           Z
 ---------------------------------------------------------------------
      1          6           0       -1.112391   -3.030096   -0.010737
      2          6           0        0.415553   -3.034407    0.003467
      3          6           0        0.989085   -1.625957    0.092382
      4          6           0        0.415059   -0.785498    1.068355
      5          6           0       -1.105551   -0.805990    1.156665
      6          6           0       -1.658991   -2.230191    1.169551
      7          1           0        2.097767   -1.603541    0.112073
      8          1           0        0.769773   -3.602047    0.886711
      9          1           0        0.805802   -3.560545   -0.891281
     10          1           0       -1.483117   -2.584057   -0.956321
     11          1           0       -1.484883   -4.072913    0.024024
     12          1           0        0.840032    0.238779    1.049408
     13          1           0       -1.453355   -0.251262    2.051637
     14          1           0       -1.504523   -0.268453    0.273644
     15          1           0       -1.380063   -2.738755    2.115105
     16          1           0       -2.765795   -2.196473    1.133438
 ---------------------------------------------------------------------
                    Distance matrix (angstroms):
                    1          2          3          4          5
     1  C    0.000000
     2  C    1.528016   0.000000
     3  C    2.529514   1.523343   0.000000
     4  C    2.921604   2.488289   1.410107   0.000000
     5  C    2.511876   2.934189   2.488482   1.523310   0.000000
     6  C    1.526990   2.512020   2.921933   2.529637   1.528009
     7  H    3.515005   2.211112   1.109084   2.101232   3.462442
     8  H    2.162194   1.108065   2.141025   2.844603   3.377521
     9  H    2.176281   1.108913   2.178030   3.419611   3.928731
    10  H    1.109287   2.174616   2.851231   3.307144   2.787255
    11  H    1.107892   2.165773   3.480342   3.937957   3.478441
    12  H    3.952393   3.462358   2.101275   1.109100   2.210959
    13  H    3.477292   3.928576   3.419646   2.177894   1.108903
    14  H    2.803803   3.377897   2.844952   2.140957   1.108084
    15  H    2.162345   2.787591   3.307959   2.851906   2.174752
    16  H    2.176651   3.478497   3.938072   3.480362   2.165732
                    6          7          8          9         10
     6  C    0.000000
     7  H    3.952743   0.000000
     8  H    2.803726   2.521440   0.000000
     9  H    3.477366   2.550638   1.778841   0.000000
    10  H    2.162287   3.863368   3.083599   2.489360   0.000000
    11  H    2.176733   4.352118   2.459556   2.519433   1.782630
    12  H    3.515020   2.419636   3.844913   4.266416   4.169937
    13  H    2.176355   4.266267   4.186539   4.971510   3.806656
    14  H    2.162157   3.845134   4.081803   4.187185   2.622078
    15  H    1.109284   4.170870   2.622217   3.806797   3.077046
    16  H    1.107906   5.004897   3.812709   4.326255   2.482454
                   11         12         13         14         15
    11  H    0.000000
    12  H    5.004730   0.000000
    13  H    4.326340   2.550339   0.000000
    14  H    3.812690   2.521117   1.778811   0.000000
    15  H    2.482656   3.863968   2.489382   3.083644   0.000000
    16  H    2.528351   4.351954   2.519808   2.459129   1.782692
                   16
    16  H    0.000000
 Symmetry turned off by external request.
 Stoichiometry    C6H10
 Framework group  C1[X(C6H10)]
 Deg. of freedom    42
 Full point group                 C1      NOp   1
 Rotational constants (GHZ):           4.6208074           4.6106972           2.5514767
 Leave Link  202 at Thu Jun  1 09:10:17 2023, MaxMem=  3145728000 cpu:               0.1 elap:               0.0
 (Enter /share/apps/g16/E6B-113X_avx2/g16/l301.exe)
 Standard basis: def2SVP (5D, 7F)
 Ernie: Thresh=  0.10000D-02 Tol=  0.10000D-05 Strict=F.
   134 basis functions,   220 primitive gaussians,   140 cartesian basis functions
    23 alpha electrons       23 beta electrons
       nuclear repulsion energy       235.4599409794 Hartrees.
 IExCor= 4639 DFT=T Ex+Corr=wB97XD ExCW=0 ScaHFX=  1.000000
 ScaDFX=  1.000000  1.000000  1.000000  1.000000 ScalE2=  1.000000  1.000000
 IRadAn=      5 IRanWt=     -1 IRanGd=            0 ICorTp=0 IEmpDi=121
 HFx  wShort=  0.000000 wLong=  0.200000 cFull=  0.222036 cShort=  0.000000 cLong=  0.777964
 DFx  wShort=  0.000000 wLong=  0.200000 cFull=  0.000000 cShort=  0.000000 cLong=  1.000000
 NAtoms=   16 NActive=   16 NUniq=   16 SFac= 1.00D+00 NAtFMM=   60 NAOKFM=F Big=F
 Integral buffers will be    131072 words long.
 Raffenetti 2 integral format.
 Two-electron integral symmetry is turned off.
 R6Disp:  Grimme-D2 Dispersion energy=       -0.0087601208 Hartrees.
 Nuclear repulsion after empirical dispersion term =      235.4511808586 Hartrees.
 Leave Link  301 at Thu Jun  1 09:10:17 2023, MaxMem=  3145728000 cpu:               1.0 elap:               0.1
 (Enter /share/apps/g16/E6B-113X_avx2/g16/l302.exe)
 NPDir=0 NMtPBC=     1 NCelOv=     1 NCel=       1 NClECP=     1 NCelD=      1
         NCelK=      1 NCelE2=     1 NClLst=     1 CellRange=     0.0.
 One-electron integrals computed using PRISM.
   1 Symmetry operations used in ECPInt.
 ECPInt:  NShTT=    2211 NPrTT=    7611 LenC2=    2211 LenP2D=    6566.
 LDataN:  DoStor=T MaxTD1= 4 Len=   56
 NBasis=   134 RedAO= T EigKep=  1.90D-03  NBF=   134
 NBsUse=   134 1.00D-06 EigRej= -1.00D+00 NBFU=   134
 Precomputing XC quadrature grid using
 IXCGrd= 4 IRadAn=           5 IRanWt=          -1 IRanGd=           0 AccXCQ= 0.00D+00.
 Generated NRdTot=       0 NPtTot=           0 NUsed=           0 NTot=          32
 NSgBfM=   140   140   140   140   140 MxSgAt=    16 MxSgA2=    16.
 Leave Link  302 at Thu Jun  1 09:10:18 2023, MaxMem=  3145728000 cpu:               5.9 elap:               0.3
 (Enter /share/apps/g16/E6B-113X_avx2/g16/l303.exe)
 DipDrv:  MaxL=1.
 Leave Link  303 at Thu Jun  1 09:10:18 2023, MaxMem=  3145728000 cpu:               0.7 elap:               0.0
 (Enter /share/apps/g16/E6B-113X_avx2/g16/l401.exe)
 Initial guess from the checkpoint file:  "cyclohexene.chk"
 B after Tr=     0.001892   -0.009891   -0.021920
         Rot=    0.999991    0.003448    0.002356    0.000001 Ang=   0.48 deg.
 Guess basis will be translated and rotated to current coordinates.
 JPrj=2 DoOrth=T DoCkMO=T.
 Generating alternative initial guess.
 ExpMin= 1.22D-01 ExpMax= 1.24D+03 ExpMxC= 1.86D+02 IAcc=2 IRadAn=         4 AccDes= 0.00D+00
 Harris functional with IExCor= 4639 and IRadAn=       4 diagonalized for initial guess.
 HarFok:  IExCor= 4639 AccDes= 0.00D+00 IRadAn=         4 IDoV= 1 UseB2=F ITyADJ=14
 ICtDFT=  3500011 ScaDFX=  1.000000  1.000000  1.000000  1.000000
 FoFCou: FMM=F IPFlag=           0 FMFlag=      100000 FMFlg1=           0
         NFxFlg=           0 DoJE=T BraDBF=F KetDBF=T FulRan=T
         wScrn=  0.000000 ICntrl=       500 IOpCl=  0 I1Cent=   200000004 NGrid=           0
         NMat0=    1 NMatS0=      1 NMatT0=    0 NMatD0=    1 NMtDS0=    0 NMtDT0=    0
 Symmetry not used in FoFCou.
 Harris En= -222.949005959356    
 Leave Link  401 at Thu Jun  1 09:10:18 2023, MaxMem=  3145728000 cpu:               7.0 elap:               0.3
 (Enter /share/apps/g16/E6B-113X_avx2/g16/l502.exe)
 Two-electron integral symmetry not used.
 Closed shell SCF:
 Using DIIS extrapolation, IDIIS=  1040.
 NGot=  3145728000 LenX=  3145684072 LenY=  3145664031
 Requested convergence on RMS density matrix=1.00D-08 within 128 cycles.
 Requested convergence on MAX density matrix=1.00D-06.
 Requested convergence on             energy=1.00D-06.
 No special actions if energy rises.
 Fock matrices will be formed incrementally for  20 cycles.
 Integral accuracy reduced to 1.0D-05 until final iterations.

 Cycle   1  Pass 0  IDiag  1:
 FoFJK:  IHMeth= 1 ICntrl=       0 DoSepK=T KAlg= 0 I1Cent=           0 FoldK=F
 IRaf=         1 NMat=       1 IRICut=       1 DoRegI=T DoRafI=F ISym2E= 0 IDoP0=0 IntGTp=1.
 FoFCou: FMM=F IPFlag=           0 FMFlag=      100000 FMFlg1=           0
         NFxFlg=           0 DoJE=T BraDBF=F KetDBF=F FulRan=T
         wScrn=  0.000000 ICntrl=       500 IOpCl=  0 I1Cent=           0 NGrid=           0
         NMat0=    1 NMatS0=      1 NMatT0=    0 NMatD0=    1 NMtDS0=    0 NMtDT0=    0
 Symmetry not used in FoFCou.
 E= -234.361408789307    
 DIIS: error= 5.54D-03 at cycle   1 NSaved=   1.
 NSaved= 1 IEnMin= 1 EnMin= -234.361408789307     IErMin= 1 ErrMin= 5.54D-03
 ErrMax= 5.54D-03  0.00D+00 EMaxC= 1.00D-01 BMatC= 5.44D-03 BMatP= 5.44D-03
 IDIUse=3 WtCom= 9.45D-01 WtEn= 5.54D-02
 Coeff-Com:  0.100D+01
 Coeff-En:   0.100D+01
 Coeff:      0.100D+01
 Gap=     0.753 Goal=   None    Shift=    0.000
 GapD=    0.753 DampG=2.000 DampE=1.000 DampFc=2.0000 IDamp=-1.
 RMSDP=9.95D-04 MaxDP=1.99D-02              OVMax= 3.55D-02

 Cycle   2  Pass 0  IDiag  1:
 RMSU=  9.94D-04    CP:  9.98D-01
 E= -234.369717747488     Delta-E=       -0.008308958180 Rises=F Damp=F
 DIIS: error= 1.34D-03 at cycle   2 NSaved=   2.
 NSaved= 2 IEnMin= 2 EnMin= -234.369717747488     IErMin= 2 ErrMin= 1.34D-03
 ErrMax= 1.34D-03  0.00D+00 EMaxC= 1.00D-01 BMatC= 3.60D-04 BMatP= 5.44D-03
 IDIUse=3 WtCom= 9.87D-01 WtEn= 1.34D-02
 Coeff-Com: -0.290D-01 0.103D+01
 Coeff-En:   0.000D+00 0.100D+01
 Coeff:     -0.286D-01 0.103D+01
 Gap=     0.356 Goal=   None    Shift=    0.000
 RMSDP=3.07D-04 MaxDP=9.28D-03 DE=-8.31D-03 OVMax= 1.06D-02

 Cycle   3  Pass 0  IDiag  1:
 RMSU=  2.63D-04    CP:  9.97D-01  1.16D+00
 E= -234.370200256471     Delta-E=       -0.000482508984 Rises=F Damp=F
 DIIS: error= 8.10D-04 at cycle   3 NSaved=   3.
 NSaved= 3 IEnMin= 3 EnMin= -234.370200256471     IErMin= 3 ErrMin= 8.10D-04
 ErrMax= 8.10D-04  0.00D+00 EMaxC= 1.00D-01 BMatC= 1.25D-04 BMatP= 3.60D-04
 IDIUse=3 WtCom= 9.92D-01 WtEn= 8.10D-03
 Coeff-Com: -0.746D-01 0.376D+00 0.699D+00
 Coeff-En:   0.000D+00 0.000D+00 0.100D+01
 Coeff:     -0.740D-01 0.373D+00 0.702D+00
 Gap=     0.357 Goal=   None    Shift=    0.000
 RMSDP=1.26D-04 MaxDP=2.48D-03 DE=-4.83D-04 OVMax= 3.71D-03

 Cycle   4  Pass 0  IDiag  1:
 RMSU=  9.57D-05    CP:  9.97D-01  1.23D+00  8.93D-01
 E= -234.370346130177     Delta-E=       -0.000145873706 Rises=F Damp=F
 DIIS: error= 1.25D-04 at cycle   4 NSaved=   4.
 NSaved= 4 IEnMin= 4 EnMin= -234.370346130177     IErMin= 4 ErrMin= 1.25D-04
 ErrMax= 1.25D-04  0.00D+00 EMaxC= 1.00D-01 BMatC= 2.24D-06 BMatP= 1.25D-04
 IDIUse=3 WtCom= 9.99D-01 WtEn= 1.25D-03
 Coeff-Com: -0.659D-02-0.184D-01 0.789D-01 0.946D+00
 Coeff-En:   0.000D+00 0.000D+00 0.000D+00 0.100D+01
 Coeff:     -0.658D-02-0.184D-01 0.788D-01 0.946D+00
 Gap=     0.357 Goal=   None    Shift=    0.000
 RMSDP=4.46D-05 MaxDP=9.66D-04 DE=-1.46D-04 OVMax= 8.77D-04

 Cycle   5  Pass 0  IDiag  1:
 RMSU=  1.90D-05    CP:  9.96D-01  1.25D+00  9.99D-01  1.24D+00
 E= -234.370350060358     Delta-E=       -0.000003930180 Rises=F Damp=F
 DIIS: error= 2.15D-05 at cycle   5 NSaved=   5.
 NSaved= 5 IEnMin= 5 EnMin= -234.370350060358     IErMin= 5 ErrMin= 2.15D-05
 ErrMax= 2.15D-05  0.00D+00 EMaxC= 1.00D-01 BMatC= 8.33D-08 BMatP= 2.24D-06
 IDIUse=1 WtCom= 1.00D+00 WtEn= 0.00D+00
 Coeff-Com:  0.256D-02-0.188D-01-0.231D-01 0.918D-01 0.948D+00
 Coeff:      0.256D-02-0.188D-01-0.231D-01 0.918D-01 0.948D+00
 Gap=     0.357 Goal=   None    Shift=    0.000
 RMSDP=1.16D-05 MaxDP=2.57D-04 DE=-3.93D-06 OVMax= 2.20D-04

 Cycle   6  Pass 0  IDiag  1:
 RMSU=  3.48D-06    CP:  9.96D-01  1.25D+00  1.02D+00  1.33D+00  1.12D+00
 E= -234.370350313422     Delta-E=       -0.000000253064 Rises=F Damp=F
 DIIS: error= 7.29D-06 at cycle   6 NSaved=   6.
 NSaved= 6 IEnMin= 6 EnMin= -234.370350313422     IErMin= 6 ErrMin= 7.29D-06
 ErrMax= 7.29D-06  0.00D+00 EMaxC= 1.00D-01 BMatC= 8.62D-09 BMatP= 8.33D-08
 IDIUse=1 WtCom= 1.00D+00 WtEn= 0.00D+00
 Coeff-Com:  0.742D-03-0.276D-02-0.788D-02-0.220D-01 0.195D+00 0.837D+00
 Coeff:      0.742D-03-0.276D-02-0.788D-02-0.220D-01 0.195D+00 0.837D+00
 Gap=     0.357 Goal=   None    Shift=    0.000
 RMSDP=2.63D-06 MaxDP=5.97D-05 DE=-2.53D-07 OVMax= 4.66D-05

 Initial convergence to 1.0D-05 achieved.  Increase integral accuracy.
 Cycle   7  Pass 1  IDiag  1:
 E= -234.370420778306     Delta-E=       -0.000070464884 Rises=F Damp=F
 DIIS: error= 2.29D-05 at cycle   1 NSaved=   1.
 NSaved= 1 IEnMin= 1 EnMin= -234.370420778306     IErMin= 1 ErrMin= 2.29D-05
 ErrMax= 2.29D-05  0.00D+00 EMaxC= 1.00D-01 BMatC= 7.78D-08 BMatP= 7.78D-08
 IDIUse=1 WtCom= 1.00D+00 WtEn= 0.00D+00
 Coeff-Com:  0.100D+01
 Coeff:      0.100D+01
 Gap=     0.357 Goal=   None    Shift=    0.000
 RMSDP=2.63D-06 MaxDP=5.97D-05 DE=-7.05D-05 OVMax= 6.09D-05

 Cycle   8  Pass 1  IDiag  1:
 RMSU=  3.68D-06    CP:  1.00D+00
 E= -234.370420856996     Delta-E=       -0.000000078690 Rises=F Damp=F
 DIIS: error= 3.86D-06 at cycle   2 NSaved=   2.
 NSaved= 2 IEnMin= 2 EnMin= -234.370420856996     IErMin= 2 ErrMin= 3.86D-06
 ErrMax= 3.86D-06  0.00D+00 EMaxC= 1.00D-01 BMatC= 2.74D-09 BMatP= 7.78D-08
 IDIUse=1 WtCom= 1.00D+00 WtEn= 0.00D+00
 Coeff-Com: -0.280D-01 0.103D+01
 Coeff:     -0.280D-01 0.103D+01
 Gap=     0.357 Goal=   None    Shift=    0.000
 RMSDP=9.71D-07 MaxDP=1.73D-05 DE=-7.87D-08 OVMax= 2.06D-05

 Cycle   9  Pass 1  IDiag  1:
 RMSU=  9.11D-07    CP:  1.00D+00  1.09D+00
 E= -234.370420859771     Delta-E=       -0.000000002774 Rises=F Damp=F
 DIIS: error= 2.51D-06 at cycle   3 NSaved=   3.
 NSaved= 3 IEnMin= 3 EnMin= -234.370420859771     IErMin= 3 ErrMin= 2.51D-06
 ErrMax= 2.51D-06  0.00D+00 EMaxC= 1.00D-01 BMatC= 1.26D-09 BMatP= 2.74D-09
 IDIUse=1 WtCom= 1.00D+00 WtEn= 0.00D+00
 Coeff-Com: -0.480D-01 0.412D+00 0.636D+00
 Coeff:     -0.480D-01 0.412D+00 0.636D+00
 Gap=     0.357 Goal=   None    Shift=    0.000
 RMSDP=3.38D-07 MaxDP=1.01D-05 DE=-2.77D-09 OVMax= 9.09D-06

 Cycle  10  Pass 1  IDiag  1:
 RMSU=  3.12D-07    CP:  1.00D+00  1.13D+00  9.81D-01
 E= -234.370420861102     Delta-E=       -0.000000001331 Rises=F Damp=F
 DIIS: error= 5.40D-07 at cycle   4 NSaved=   4.
 NSaved= 4 IEnMin= 4 EnMin= -234.370420861102     IErMin= 4 ErrMin= 5.40D-07
 ErrMax= 5.40D-07  0.00D+00 EMaxC= 1.00D-01 BMatC= 3.34D-11 BMatP= 1.26D-09
 IDIUse=1 WtCom= 1.00D+00 WtEn= 0.00D+00
 Coeff-Com: -0.646D-02 0.488D-02 0.107D+00 0.894D+00
 Coeff:     -0.646D-02 0.488D-02 0.107D+00 0.894D+00
 Gap=     0.357 Goal=   None    Shift=    0.000
 RMSDP=9.60D-08 MaxDP=1.40D-06 DE=-1.33D-09 OVMax= 3.92D-06

 Cycle  11  Pass 1  IDiag  1:
 RMSU=  6.54D-08    CP:  1.00D+00  1.13D+00  1.05D+00  1.08D+00
 E= -234.370420861174     Delta-E=       -0.000000000072 Rises=F Damp=F
 DIIS: error= 2.38D-07 at cycle   5 NSaved=   5.
 NSaved= 5 IEnMin= 5 EnMin= -234.370420861174     IErMin= 5 ErrMin= 2.38D-07
 ErrMax= 2.38D-07  0.00D+00 EMaxC= 1.00D-01 BMatC= 3.56D-12 BMatP= 3.34D-11
 IDIUse=1 WtCom= 1.00D+00 WtEn= 0.00D+00
 Coeff-Com:  0.386D-02-0.375D-01-0.491D-01 0.729D-01 0.101D+01
 Coeff:      0.386D-02-0.375D-01-0.491D-01 0.729D-01 0.101D+01
 Gap=     0.357 Goal=   None    Shift=    0.000
 RMSDP=5.67D-08 MaxDP=1.01D-06 DE=-7.18D-11 OVMax= 2.32D-06

 Cycle  12  Pass 1  IDiag  1:
 RMSU=  2.27D-08    CP:  1.00D+00  1.13D+00  1.09D+00  1.19D+00  1.21D+00
 E= -234.370420861184     Delta-E=       -0.000000000010 Rises=F Damp=F
 DIIS: error= 9.39D-08 at cycle   6 NSaved=   6.
 NSaved= 6 IEnMin= 6 EnMin= -234.370420861184     IErMin= 6 ErrMin= 9.39D-08
 ErrMax= 9.39D-08  0.00D+00 EMaxC= 1.00D-01 BMatC= 1.66D-12 BMatP= 3.56D-12
 IDIUse=1 WtCom= 1.00D+00 WtEn= 0.00D+00
 Coeff-Com:  0.266D-02-0.200D-01-0.361D-01-0.554D-01 0.509D+00 0.600D+00
 Coeff:      0.266D-02-0.200D-01-0.361D-01-0.554D-01 0.509D+00 0.600D+00
 Gap=     0.357 Goal=   None    Shift=    0.000
 RMSDP=1.46D-08 MaxDP=4.53D-07 DE=-1.01D-11 OVMax= 7.30D-07

 Cycle  13  Pass 1  IDiag  1:
 RMSU=  9.11D-09    CP:  1.00D+00  1.13D+00  1.10D+00  1.21D+00  1.31D+00
                    CP:  8.04D-01
 E= -234.370420861187     Delta-E=       -0.000000000004 Rises=F Damp=F
 DIIS: error= 3.53D-08 at cycle   7 NSaved=   7.
 NSaved= 7 IEnMin= 7 EnMin= -234.370420861187     IErMin= 7 ErrMin= 3.53D-08
 ErrMax= 3.53D-08  0.00D+00 EMaxC= 1.00D-01 BMatC= 1.25D-13 BMatP= 1.66D-12
 IDIUse=1 WtCom= 1.00D+00 WtEn= 0.00D+00
 Coeff-Com:  0.374D-04 0.138D-02-0.159D-03-0.279D-01-0.738D-01 0.152D+00
 Coeff-Com:  0.949D+00
 Coeff:      0.374D-04 0.138D-02-0.159D-03-0.279D-01-0.738D-01 0.152D+00
 Coeff:      0.949D+00
 Gap=     0.357 Goal=   None    Shift=    0.000
 RMSDP=6.28D-09 MaxDP=1.63D-07 DE=-3.52D-12 OVMax= 4.45D-07

 SCF Done:  E(RwB97XD) =  -234.370420861     A.U. after   13 cycles
            NFock= 13  Conv=0.63D-08     -V/T= 2.0134
 KE= 2.312802463536D+02 PE=-1.011725231445D+03 EE= 3.106233833712D+02
 Leave Link  502 at Thu Jun  1 09:10:26 2023, MaxMem=  3145728000 cpu:             180.8 elap:               7.6
 (Enter /share/apps/g16/E6B-113X_avx2/g16/l701.exe)
 ... and contract with generalized density number  0.
 Compute integral first derivatives.
 R6Disp: Adding Grimme-D2 dispersion energy 1st derivatives to the gradient.
   1 Symmetry operations used in ECPInt.
 ECPInt:  NShTT=    2211 NPrTT=    7611 LenC2=    2211 LenP2D=    6566.
 LDataN:  DoStor=T MaxTD1= 5 Len=  102
 Leave Link  701 at Thu Jun  1 09:10:26 2023, MaxMem=  3145728000 cpu:               3.0 elap:               0.1
 (Enter /share/apps/g16/E6B-113X_avx2/g16/l702.exe)
 L702 exits ... SP integral derivatives will be done elsewhere.
 Leave Link  702 at Thu Jun  1 09:10:26 2023, MaxMem=  3145728000 cpu:               0.2 elap:               0.0
 (Enter /share/apps/g16/E6B-113X_avx2/g16/l703.exe)
 Integral derivatives from FoFJK, PRISM(SPDF).
 Compute integral first derivatives, UseDBF=F ICtDFT=           0.
 Calling FoFJK, ICntrl=      2127 FMM=F ISym2X=0 I1Cent= 0 IOpClX= 0 NMat=1 NMatS=1 NMatT=0.
 FoFJK:  IHMeth= 1 ICntrl=    2127 DoSepK=T KAlg= 0 I1Cent=           0 FoldK=F
 IRaf=         1 NMat=       1 IRICut=       1 DoRegI=T DoRafI=F ISym2E= 0 IDoP0=0 IntGTp=1.
 FoFCou: FMM=F IPFlag=           0 FMFlag=      100000 FMFlg1=         800
         NFxFlg=           0 DoJE=F BraDBF=F KetDBF=F FulRan=T
         wScrn=  0.000000 ICntrl=      2527 IOpCl=  0 I1Cent=           0 NGrid=           0
         NMat0=    1 NMatS0=      1 NMatT0=    0 NMatD0=    1 NMtDS0=    0 NMtDT0=    0
 Symmetry not used in FoFCou.
 Leave Link  703 at Thu Jun  1 09:10:27 2023, MaxMem=  3145728000 cpu:              37.0 elap:               1.6
 (Enter /share/apps/g16/E6B-113X_avx2/g16/l716.exe)
 Dipole        =-1.22674993D-01-8.35578724D-02 5.11327095D-05
 -------------------------------------------------------------------
 Center     Atomic                   Forces (Hartrees/Bohr)
 Number     Number              X              Y              Z
 -------------------------------------------------------------------
      1        6          -0.002327476   -0.004916182   -0.000488265
      2        6          -0.001190504    0.002062730   -0.019324434
      3        6           0.005360987   -0.007310534    0.095735419
      4        6          -0.004767464    0.007736878   -0.095713594
      5        6           0.001454807   -0.001876525    0.019306501
      6        6          -0.005430747   -0.000372757    0.000447333
      7        1          -0.005163578    0.007809770   -0.018735682
      8        1           0.001333805    0.000834535   -0.003699391
      9        1          -0.001596761    0.001285658    0.003704854
     10        1           0.002048248   -0.001953425    0.002554475
     11        1           0.000204531    0.004066881   -0.000939104
     12        1           0.005385605   -0.007670418    0.018729290
     13        1           0.000606018   -0.001951190   -0.003696501
     14        1           0.001274172    0.000929657    0.003709162
     15        1          -0.001060571    0.002622649   -0.002547430
     16        1           0.003868929   -0.001297727    0.000957366
 -------------------------------------------------------------------
 Cartesian Forces:  Max     0.095735419 RMS     0.020573961
 Leave Link  716 at Thu Jun  1 09:10:27 2023, MaxMem=  3145728000 cpu:               0.2 elap:               0.0
 (Enter /share/apps/g16/E6B-113X_avx2/g16/l103.exe)

 GradGradGradGradGradGradGradGradGradGradGradGradGradGradGradGradGradGrad
 Berny optimization.
 Using GEDIIS/GDIIS optimizer.
 FormGI is forming the generalized inverse of G from B-inverse, IUseBI=4.
 Internal  Forces:  Max     0.045392559 RMS     0.006844990
 Search for a local minimum.
 Step number   2 out of a maximum of   99
 All quantities printed in internal units (Hartrees-Bohrs-Radians)
 RMS Force = .68450D-02 SwitMx=.10000D-02 MixMth= 1
 Mixed Optimization -- RFO/linear search
 Update second derivatives using D2CorX and points    1    2
 DE= -4.23D-02 DEPred=-4.11D-02 R= 1.03D+00
 TightC=F SS=  1.41D+00  RLast= 5.44D-01 DXNew= 5.0454D-01 1.6330D+00
 Trust test= 1.03D+00 RLast= 5.44D-01 DXMaxT set to 5.05D-01
 ITU=  1  0
 Use linear search instead of GDIIS.
     Eigenvalues ---    0.00745   0.00782   0.00876   0.01474   0.02000
     Eigenvalues ---    0.03284   0.03352   0.04345   0.04550   0.05060
     Eigenvalues ---    0.05408   0.05986   0.06136   0.07242   0.08097
     Eigenvalues ---    0.08098   0.08856   0.09312   0.09337   0.09623
     Eigenvalues ---    0.12171   0.12771   0.12873   0.16799   0.16828
     Eigenvalues ---    0.22146   0.22257   0.29387   0.29587   0.30262
     Eigenvalues ---    0.30841   0.31159   0.31381   0.31384   0.31385
     Eigenvalues ---    0.31433   0.31456   0.31464   0.31466   0.31468
     Eigenvalues ---    0.31474   0.32417
 RFO step:  Lambda=-8.76130558D-03 EMin= 7.44733451D-03
 Quartic linear search produced a step of  1.10688.
 Iteration  1 RMS(Cart)=  0.03928354 RMS(Int)=  0.02138355
 Iteration  2 RMS(Cart)=  0.01575674 RMS(Int)=  0.01075375
 Iteration  3 RMS(Cart)=  0.00043950 RMS(Int)=  0.01074246
 Iteration  4 RMS(Cart)=  0.00000233 RMS(Int)=  0.01074246
 Iteration  5 RMS(Cart)=  0.00000004 RMS(Int)=  0.01074246
 ITry= 1 IFail=0 DXMaxC= 2.06D-01 DCOld= 1.00D+10 DXMaxT= 5.05D-01 DXLimC= 3.00D+00 Rises=F
 Variable       Old X    -DE/DX   Delta X   Delta X   Delta X     New X
                                 (Linear)    (Quad)   (Total)
    R1        2.88753   0.00269   0.02700  -0.02384  -0.00170   2.88584
    R2        2.88559   0.00258   0.02511  -0.01691   0.00379   2.88938
    R3        2.09625  -0.00365  -0.02612   0.01616  -0.00996   2.08629
    R4        2.09361  -0.00393  -0.02727   0.01616  -0.01111   2.08250
    R5        2.87870  -0.00219   0.01708  -0.04007  -0.01852   2.86018
    R6        2.09394  -0.00295  -0.02866   0.02451  -0.00415   2.08979
    R7        2.09554  -0.00416  -0.02527   0.01162  -0.01366   2.08189
    R8        2.66472  -0.04539  -0.22031   0.03361  -0.18055   2.48417
    R9        2.09586  -0.00534  -0.02466   0.00314  -0.02151   2.07435
   R10        2.87864  -0.00217   0.01712  -0.04002  -0.01844   2.86020
   R11        2.09590  -0.00534  -0.02470   0.00319  -0.02152   2.07438
   R12        2.88752   0.00270   0.02706  -0.02389  -0.00169   2.88582
   R13        2.09552  -0.00415  -0.02522   0.01161  -0.01361   2.08191
   R14        2.09397  -0.00296  -0.02872   0.02451  -0.00421   2.08977
   R15        2.09624  -0.00364  -0.02610   0.01617  -0.00992   2.08632
   R16        2.09364  -0.00394  -0.02735   0.01621  -0.01114   2.08250
    A1        1.93075  -0.00407  -0.01324   0.01405  -0.00296   1.92779
    A2        1.92117   0.00219   0.01295  -0.01306  -0.00411   1.91705
    A3        1.91055   0.00016  -0.00214  -0.00313   0.00098   1.91153
    A4        1.90563  -0.00005  -0.00430   0.00040   0.00033   1.90596
    A5        1.92674   0.00292   0.01582  -0.00644   0.00744   1.93418
    A6        1.86801  -0.00102  -0.00883   0.00778  -0.00168   1.86634
    A7        1.95456  -0.00090   0.01208  -0.01935  -0.01246   1.94210
    A8        1.90553   0.00069  -0.00422   0.01252   0.01004   1.91557
    A9        1.92383   0.00099   0.01290  -0.00890   0.00461   1.92844
   A10        1.88258  -0.00226  -0.02949   0.01826  -0.00676   1.87583
   A11        1.93187   0.00245   0.02172  -0.01134   0.00882   1.94069
   A12        1.86252  -0.00107  -0.01487   0.01138  -0.00401   1.85851
   A13        2.02440   0.01046   0.09173   0.01735   0.08713   2.11153
   A14        1.97804   0.00168   0.07232   0.02019   0.04731   2.02535
   A15        1.96340   0.00309   0.05619   0.08308   0.09450   2.05791
   A16        2.02469   0.01044   0.09157   0.01730   0.08693   2.11162
   A17        1.96345   0.00309   0.05622   0.08295   0.09443   2.05788
   A18        1.97785   0.00169   0.07240   0.02020   0.04745   2.02530
   A19        1.95474  -0.00091   0.01206  -0.01937  -0.01252   1.94223
   A20        1.93173   0.00245   0.02166  -0.01125   0.00887   1.94061
   A21        1.88251  -0.00225  -0.02950   0.01829  -0.00674   1.87578
   A22        1.92395   0.00099   0.01293  -0.00899   0.00455   1.92850
   A23        1.90547   0.00069  -0.00418   0.01251   0.01009   1.91555
   A24        1.86246  -0.00107  -0.01485   0.01138  -0.00401   1.85846
   A25        1.93060  -0.00406  -0.01316   0.01410  -0.00283   1.92777
   A26        1.90572  -0.00004  -0.00428   0.00039   0.00033   1.90605
[...]

 ----------------------------------------------------------------------

 Dipole orientation:
     6          2.00996380         -2.94277782          4.93619149
     6          3.04430420         -4.30620277          2.60587322
     6          2.69097473         -2.78074100          0.22959787
     6          2.08637623         -0.32844806          0.22877825
     6          1.74020324          1.20019306          2.60416440
     6          2.78269926         -0.15970693          4.93282556
     1          2.95092419         -3.76009051         -1.57459085
     1          5.07790953         -4.71740339          2.85743503
     1          2.12788583         -6.16468419          2.38737557
     1         -0.07254554         -3.06848109          4.93621321
     1          2.66263194         -3.88636299          6.67175316
     1          1.81973323          0.64805050         -1.57597394
     1          2.65525413          3.05865827          2.37996408
     1         -0.29271284          1.61100300          2.86188242
     1          4.86518028         -0.03385943          4.92545357
     1          2.13591043          0.78639547          6.66922516

 Electric dipole moment (dipole orientation):
 (Debye = 10**-18 statcoulomb cm , SI units = C m)
                  (au)            (Debye)         (10**-30 SI)
   Tot        0.109690D+00      0.278805D+00      0.929994D+00
   x          0.000000D+00      0.000000D+00      0.000000D+00
   y          0.000000D+00      0.000000D+00      0.000000D+00
   z          0.109690D+00      0.278805D+00      0.929994D+00

 Dipole polarizability, Alpha (dipole orientation).
 (esu units = cm**3 , SI units = C**2 m**2 J**-1)
 Alpha(0;0):
               (au)            (10**-24 esu)      (10**-40 SI)
   iso        0.616722D+02      0.913887D+01      0.101684D+02
   aniso      0.223831D+02      0.331683D+01      0.369047D+01
   xx         0.496828D+02      0.736223D+01      0.819158D+01
   yx        -0.560406D+01     -0.830436D+00     -0.923985D+00
   yy         0.729381D+02      0.108083D+02      0.120259D+02
   zx         0.258641D-01      0.383266D-02      0.426441D-02
   zy         0.223974D-03      0.331895D-04      0.369283D-04
   zz         0.623956D+02      0.924608D+01      0.102877D+02

 ----------------------------------------------------------------------
 1\1\GINC-COMPUTE-0-23\Freq\RwB97XD\def2SVP\C6H10\ROOT\01-Jun-2023\0\\#
 P Geom=AllCheck Guess=TCheck SCRF=Check GenChk RwB97XD/def2SVP Freq\\T
 itle Card Required\\0,1\C,-1.0959513773,-3.0295834965,-0.0043099898\C,
 0.4323363858,-3.0823040108,0.0443041134\C,1.0357077173,-1.7362319179,0
 .3473894118\C,0.3296809016,-0.701756383,0.8140445657\C,-1.1441041479,-
 0.7727235355,1.1155128498\C,-1.652367784,-2.2149776656,1.1631608902\H,
 2.1097458096,-1.6160196423,0.1712752011\H,0.7636654561,-3.8076889992,0
 .8105807124\H,0.8335105949,-3.4616400094,-0.9101130123\H,-1.4129153434
 ,-2.5608787234,-0.9523157034\H,-1.5128029207,-4.0485707486,-0.00229653
 59\H,0.8331641375,0.2544419011,0.9907067944\H,-1.3519421706,-0.2610922
 417,2.0698577143\H,-1.6978938605,-0.1994606096,0.3488109074\H,-1.33223
 03967,-2.6814323634,2.1112060185\H,-2.7531996814,-2.2314882343,1.16030
 80625\\Version=ES64L-G16RevA.03\HF=-234.4110966\RMSD=3.921e-09\RMSF=8.
 058e-06\ZeroPoint=0.1471986\Thermal=0.1526603\Dipole=-0.090631,-0.0617
 894,-0.0002484\DipoleDeriv=0.0798132,0.0293663,0.0158973,0.0133447,0.0
 756253,-0.0372587,0.0279676,-0.0219471,0.0919543,0.025099,-0.0121334,0
 .0329229,-0.0201355,0.0094161,-0.0525055,0.0111108,-0.0194723,0.179046
 8,-0.0006541,0.0904701,-0.0275601,0.0280861,0.1403318,0.1012887,-0.031
 4788,0.0682253,-0.1940432,0.1620637,-0.0350147,-0.0838627,0.0274385,-0
 .0218387,0.0624595,-0.0512043,0.0542963,-0.1940954,0.0007111,-0.010957
 1,0.036584,-0.0023889,0.0340239,-0.0496645,0.0137041,-0.017595,0.17942
 09,0.09131,0.0097539,0.0291591,0.0251382,0.0647582,-0.0281702,0.010103
 4,-0.0341763,0.0921712,-0.126846,-0.0350485,0.0359323,-0.0405037,0.029
 1315,-0.0280262,0.0414541,-0.0274714,0.107315,0.0177364,-0.0194054,-0.
 0536308,0.0522085,-0.0931399,0.0437774,-0.0672015,0.106113,-0.0301433,
 -0.0047357,-0.0004363,0.0587443,0.0238258,0.0016441,-0.0574676,0.08520
 27,-0.1090872,-0.0855282,-0.0126592,0.0235944,-0.0313413,0.0530414,0.0
 172816,0.0880406,-0.0469754,0.036732,-0.1172726,-0.0095181,-0.0754334,
 -0.0051724,-0.0872376,-0.1494246,-0.0400029,0.0115332,-0.0115049,0.048
 6822,-0.0172443,-0.0831286,0.0128566,-0.0778175,-0.0805553,-0.0438739,
 0.0102628,-0.048799,0.1072869,0.0087164,0.0184744,0.0321867,-0.0057938
 ,-0.0116687,-0.0754348,0.0708353,-0.119186,-0.0859577,-0.067125,0.0853
 787,-0.0212156,0.0136298,-0.008134,0.0656814,-0.0744978,0.1015462,-0.0
 302856,0.0392824,0.0326428,-0.0705651,0.0033284,-0.0345976,0.0610751,-
 0.016905,0.0572221,-0.1171978,-0.1859498,-0.0181232,0.0390648,-0.00616
 44,0.0271464,-0.0099183,0.0060889,-0.0148958,0.0486462\Polar=65.059813
 4,-3.9021834,68.1112548,-4.9417487,7.2526756,51.8454042\Quadrupole=0.1
 781554,0.7599995,-0.9381549,0.0477334,-0.4138997,0.3943245\PG=C01 [X(C
 6H10)]\NImag=0\\0.49357947,0.03583191,0.60004575,0.03011220,-0.0355673
 0,0.54383552,-0.20456471,0.00657855,-0.00726704,0.50272249,0.00522827,
 -0.08334040,-0.00085593,-0.03109202,0.53222638,-0.00804884,-0.00069578
 ,-0.08219670,-0.01962161,0.00334016,0.57828912,-0.01893538,-0.03473751
 ,-0.00564604,-0.11609701,-0.04955343,-0.00846012,0.71231038,-0.0075611
 4,0.00157485,0.00234959,-0.05457595,-0.19808432,-0.03088379,-0.1000040
 2,0.68435056,-0.00175133,0.00002590,0.00050053,-0.00684033,-0.02827341
 ,-0.08316824,-0.14336846,0.18674169,0.23543056,0.00086440,0.00082772,0
 .00051989,0.01562693,-0.00698011,-0.00291471,-0.24249487,0.18108092,0.
 09451248,0.61992262,0.00222271,0.00210979,0.00034286,0.01293465,-0.028
 18900,-0.01284294,0.18545232,-0.38619646,-0.14099450,-0.06394661,0.776
 84251,0.00072725,-0.00093042,0.00026188,0.00112349,-0.00779877,0.00522
 132,0.09671178,-0.13946503,-0.11906191,-0.12125729,0.20187964,0.235353
 20,0.00676710,0.00932098,-0.00274063,-0.00131618,-0.00081591,-0.002973
 31,-0.02034619,0.00707900,0.00683250,-0.22253457,-0.00781270,0.0287152
 8,0.50695339,-0.00381352,-0.02354020,-0.00568581,-0.00039276,-0.000891
 40,0.00347776,0.02701186,0.00778335,-0.00385962,-0.01282794,-0.0916030
 4,-0.00392053,-0.03284758,0.52800171,-0.00967527,-0.02923506,-0.000387
 77,-0.00216486,0.00404818,-0.00539735,0.01300867,-0.00197887,0.0052274
 3,0.03171739,-0.00335988,-0.08308647,0.00386879,0.01973899,0.57837474,
 -0.09799817,0.02159203,0.03191134,-0.01755845,0.01879401,0.03072850,0.
 00321938,-0.00003960,0.00051798,-0.01538701,-0.03588061,0.00059515,-0.
 09538004,-0.03619156,0.00355690,0.60995131,0.02242664,-0.11513824,-0.0
 4970392,0.00569864,0.00092359,-0.00160173,0.00145750,-0.00000779,-0.00
 101231,-0.00882510,-0.00172640,0.00167220,-0.03752985,-0.19251639,0.00
 714309,-0.00992898,0.48324625,0.03476421,-0.04774765,-0.15728827,0.006
 25060,0.00053657,-0.00032950,-0.00052865,-0.00035297,0.00028523,-0.000
 15925,0.00609122,0.00052100,0.00340023,0.00637825,-0.08220208,0.022306
 06,-0.04110821,0.54386621,0.00103025,-0.00248932,0.00014299,-0.0072242
 2,0.00178432,0.00169954,-0.32669121,-0.03028615,0.04838965,-0.01264299
 ,-0.00548742,0.00192714,0.00177661,0.00170097,0.00284992,0.00045852,0.
 00020179,-0.00031022,0.34395902,-0.00042345,-0.00522427,-0.00084211,-0
 .02643064,0.00173569,0.00356367,-0.03534607,-0.05852287,0.00124878,0.0
 2644727,0.00560618,-0.00543586,-0.00009455,-0.00223968,-0.00475220,0.0
 0027299,-0.00047826,-0.00019667,0.03418109,0.05765407,-0.00039749,-0.0
 0207187,0.00083135,-0.00600524,-0.00207210,0.00229023,0.04682671,0.001
 30399,-0.04735336,0.01208212,0.00074551,0.00302500,0.00273742,-0.00439
 731,0.01072091,-0.00062033,0.00001030,0.00002592,-0.05302756,0.0040444
 9,0.03729554,-0.01038751,0.02036721,-0.02441705,-0.06815709,0.04620398
 ,-0.05027647,0.00535401,-0.00717277,0.00973988,-0.00049272,-0.00087072
 ,-0.00053037,-0.00015593,-0.00029669,0.00065316,0.00104203,-0.00051168
 ,-0.00149916,-0.00031521,0.00063157,-0.00036807,0.07501036,-0.00125237
 ,0.00035132,-0.00069569,0.05058583,-0.15335264,0.12087547,0.00927506,-
 0.02303550,0.01768742,-0.00380374,-0.00107424,-0.00005220,0.00026013,-
 0.00061495,0.00132536,0.00003204,-0.00050577,0.00038862,-0.00058065,0.
 00011415,-0.00050077,-0.05151434,0.16869943,-0.00012683,-0.00071904,-0
 .00111676,-0.05236026,0.11774625,-0.17278881,0.00319654,-0.00660562,0.
 00752183,-0.00022051,-0.00092827,-0.00032618,0.00027114,-0.00059858,0.
 00037636,0.00008221,-0.00027026,0.00093152,0.00003487,0.00058095,0.000
 02084,0.05846402,-0.12758587,0.18378328,-0.01035599,0.01220861,0.02850
 390,-0.08132162,0.03055314,0.08243359,0.00544749,-0.00416255,-0.013367
 94,-0.00137727,-0.00196912,0.00003424,-0.00001580,-0.00064203,-0.00024
 970,-0.00682881,-0.00108472,-0.00166498,0.00047909,0.00033820,-0.00013
 491,0.00285123,-0.00305248,-0.00807170,0.08939361,0.00040587,-0.000805
 00,0.00021773,0.03091375,-0.07369687,-0.07773921,0.01201738,-0.0128959
 7,-0.02739010,-0.00386719,-0.00255242,0.00006594,-0.00038694,0.0006493
 6,-0.00058807,0.00021228,0.00027047,0.00007316,-0.00009799,0.00091812,
 0.00071886,-0.00759567,0.00708502,0.01839115,-0.03299714,0.08199785,-0
 .00301614,0.00215117,0.00322025,0.08396341,-0.07822077,-0.24951414,0.0
 0219304,-0.00146939,-0.00291850,-0.00189907,0.00003829,-0.00007970,0.0
 0008870,0.00005890,-0.00001082,-0.00035285,0.00026757,0.00078488,-0.00
 025844,-0.00037773,0.00064513,0.00792451,-0.00749159,-0.01920043,-0.08
 935847,0.08526765,0.26542433,-0.06776399,0.02974681,-0.06280551,-0.011
 00156,0.01545941,-0.02791407,0.00079891,0.00148311,0.00040787,0.000045
 56,-0.00030643,-0.00005811,0.00026179,-0.00044195,-0.00071194,0.003524
 89,-0.00563325,0.01188147,0.00007510,-0.00007544,0.00034631,-0.0064317
 7,-0.00045770,-0.00056154,0.00102642,0.00029165,0.00011455,0.07617057,
 0.03057838,-0.09905552,0.09822440,0.00081195,-0.00124512,0.00039792,-0
 .00036306,0.00040602,-0.00073834,-0.00003812,0.00012499,0.00022197,-0.
 00039513,0.00135031,-0.00071213,-0.00528442,0.00711216,-0.01653480,0.0
 0007847,0.00005285,0.00004874,0.00078836,0.00093310,-0.00028529,0.0004
 5239,0.00011806,0.00001484,-0.03653950,0.10197399,-0.06422529,0.097066
 30,-0.23887961,0.00151842,-0.00041420,0.00056880,-0.00008190,0.0001738
 0,0.00012299,-0.00019565,-0.00047758,-0.00010145,-0.00028564,0.0013341
 7,0.00120716,-0.00688876,0.01080117,-0.02315949,-0.00005024,-0.0001050
 4,-0.00004366,0.00028272,-0.00026510,0.00112047,-0.00016547,-0.0003008
 2,0.00104611,0.06678926,-0.10301595,0.25983393,-0.08457038,-0.09276250
 ,0.00129754,-0.01154078,-0.03109736,-0.00068242,-0.00650851,0.00229459
 ,0.00077756,-0.00035092,0.00013416,0.00025422,-0.00057356,0.00140556,0
 .00290223,0.00464002,0.01325562,-0.00122904,-0.00068638,-0.00161970,-0
 .00064817,0.00117851,-0.00010854,-0.00048276,0.00045892,0.00011264,0.0
 0050238,0.00305165,0.00863470,0.00027520,0.09358320,-0.09396973,-0.279
 90622,0.00397651,0.00290749,0.00388374,0.00030928,0.00062062,0.0007541
 4,-0.00003493,0.00045544,0.00051443,0.00009837,0.00180111,0.00003815,-
 0.00387460,-0.00579690,-0.01395855,0.00229442,0.00012258,0.00013589,-0
 .00002608,-0.00020855,0.00088159,-0.00021913,-0.00053120,0.00002060,0.
 00006769,-0.00466301,-0.01111386,-0.00074196,0.09955063,0.29878855,0.0
 0215033,0.00596292,-0.04862800,-0.00167053,-0.00118966,-0.00098423,-0.
 00048486,-0.00015013,0.00089791,0.00045257,0.00022482,0.00000052,0.002
 44142,-0.00173866,-0.00427861,-0.01024442,-0.02465776,0.00122175,0.000
 01278,-0.00011266,0.00014094,-0.00016104,-0.00047725,0.00041150,0.0000
 4949,0.00029864,-0.00011848,0.01076241,0.02461733,0.00042354,-0.002298
 24,-0.00203565,0.04923289,-0.00019046,0.00052142,0.00029512,-0.0011673
 1,0.00105458,0.00337847,0.01028901,0.01746683,0.00436950,-0.11645515,-
 0.11767829,-0.01888927,-0.00782372,-0.02619603,-0.00395484,-0.00537347
 ,0.00208760,0.00073115,0.00064963,0.00092554,-0.00161605,-0.00014016,-
 0.00021740,-0.00015101,0.00043774,0.00089253,0.00023176,0.00007500,0.0
 0002404,-0.00006622,0.00017986,-0.00006120,-0.00009233,0.11893907,0.00
 045775,0.00017336,0.00021774,0.00285508,0.00070218,-0.00438295,-0.0144
 6512,-0.01733153,-0.00379236,-0.11263099,-0.26890214,-0.04478726,0.002
 01584,0.00233964,-0.00027971,0.00002530,0.00118643,-0.00044093,0.00072
 505,0.00000346,0.00223209,0.00022258,0.00017704,0.00014407,-0.00046530
 ,-0.00133748,-0.00022556,-0.00005992,0.00000181,-0.00001732,-0.0001081
 1,-0.00001972,0.00004253,0.12231170,0.28282323,0.00021771,0.00058186,0
 .00002382,0.00308826,-0.00415783,0.01072525,-0.00509988,-0.01097524,0.
 00301550,-0.01834848,-0.04330909,-0.04741352,0.00410862,0.00480872,0.0
 0229005,0.00206740,-0.00038224,0.00083515,-0.00148855,0.00232909,-0.00
 695707,-0.00098895,-0.00244574,-0.00073796,0.00076676,0.00138116,0.000
 21798,-0.00006650,0.00018817,-0.00004807,0.00002169,0.00009119,-0.0000
 7035,0.01565211,0.05105251,0.03735809,-0.00096868,-0.00207230,0.000536
 35,0.00021220,-0.00047586,0.00064123,-0.00437282,-0.00268615,-0.000079
 16,-0.00781858,0.01718101,0.03039732,-0.05391789,0.02027647,0.04254469
 ,0.00220803,-0.00451518,-0.01059964,-0.00095471,0.00143913,-0.00156893
 ,0.00014683,0.00006883,0.00001388,0.00013675,0.00008382,0.00003207,-0.
 00005639,0.00014480,0.00026079,0.00043735,-0.00053540,-0.00038441,0.00
 093389,-0.00027879,-0.00061929,0.06066606,-0.00337182,-0.00557109,0.00
 157033,-0.00073151,0.00041755,0.00001493,-0.00078964,0.00044886,-0.000
 01063,0.00101356,0.00034269,0.00245348,0.01991606,-0.10126972,-0.10524
 335,0.00731379,-0.01335623,-0.02646024,0.00008113,0.00005619,-0.000208
 53,0.00008584,0.00015757,0.00006546,0.00017747,0.00003466,0.00002629,-
 0.00014163,0.00025116,0.00008917,0.00089334,-0.00107317,-0.00146548,0.
 00015580,0.00045562,0.00038814,-0.02183471,0.11089850,-0.00012125,0.00
 042886,0.00078647,-0.00008718,-0.00006223,-0.00000832,0.00065116,0.001
 78203,-0.00007870,0.00058669,-0.00257582,-0.00286283,0.04243090,-0.106
 82627,-0.24965718,-0.00089920,0.00357869,0.00321325,0.00012388,-0.0002
 9560,0.00021311,0.00001630,-0.00005759,-0.00001798,-0.00003620,-0.0000
 2022,-0.00003547,-0.00002964,0.00016853,0.00040531,0.00017376,0.000002
 51,0.00015274,0.00044751,0.00010340,0.00064375,-0.04706283,0.11443901,
 0.26552249,-0.00046462,0.00061930,0.00018518,-0.00056611,0.00042503,-0
 .00147228,-0.00257776,-0.00298387,0.00023654,-0.01852692,0.01863366,-0
 .02003982,-0.10893299,0.06651006,-0.09411178,0.00539752,-0.00744022,0.
 00955340,0.00013761,-0.00032894,0.00263775,0.00032929,0.00045628,0.000
 09021,0.00020854,0.00004470,0.00004705,0.00006339,0.00030234,0.0000227
 8,0.00004983,0.00002929,0.00012133,0.00006899,-0.00073353,0.00060051,0
 .00292280,-0.00309668,0.00411123,0.12101329,0.00007638,0.00099869,0.00
 154197,-0.00013381,-0.00020785,-0.00012844,-0.00004951,0.00101814,0.00
 047278,0.00218306,0.00086347,-0.00261152,0.06212051,-0.11233329,0.0908
 8959,0.01415694,-0.01545959,0.02249649,0.00011388,-0.00009941,0.000028
 78,0.00003658,0.00013625,-0.00014979,0.00006256,0.00009596,-0.00003559
 ,0.00010851,-0.00012655,-0.00094252,-0.00025177,0.00023212,-0.00024116
 ,0.00047772,-0.00027570,0.00016189,-0.00760878,0.00702391,-0.01011761,
 -0.06947029,0.12244878,0.00022061,-0.00017608,0.00093331,0.00045831,-0
 .00047294,0.00037484,0.00094183,-0.00013755,-0.00032379,0.00494926,-0.
 00535776,0.00752572,-0.09042945,0.09168463,-0.17279653,0.00072358,-0.0
 0014524,-0.00110192,-0.00007987,0.00019441,-0.00073678,0.00010705,-0.0
 0013813,-0.00009569,-0.00006575,0.00001112,-0.00001786,-0.00027089,0.0
 0021011,0.00012857,-0.00006909,0.00011297,-0.00001195,-0.00055065,0.00
 017845,0.00001950,-0.01415878,0.01422544,-0.01920413,0.09737446,-0.100
 96957,0.18377284,0.00293808,-0.00507127,0.01106666,0.00090907,-0.00065
 189,0.00093419,0.00001071,-0.00001242,-0.00019334,0.00083914,-0.000378
 61,0.00054265,0.00298136,-0.00467743,0.00981133,-0.07435913,0.03316569
 ,-0.06851249,-0.00000054,0.00005381,-0.00015120,0.00003631,0.00031167,
 -0.00009854,0.00021139,0.00004008,-0.00014613,-0.00014361,0.00101749,0
 .00245436,0.00017473,-0.00016501,-0.00061559,0.00005676,0.00008573,-0.
 00017116,0.00048854,0.00065597,-0.00005756,0.00006708,-0.00175235,0.00
 046869,0.07365542,-0.00539569,0.00770296,-0.01708098,-0.00069850,0.000
 68506,0.00039586,-0.00028280,0.00017682,0.00013172,0.00146619,0.000357
 34,-0.00064705,0.00995899,-0.01524038,0.02615865,0.03232706,-0.0924218
 3,0.09434164,-0.00002990,0.00007716,0.00012967,0.00011915,-0.00010179,
 0.00032855,-0.00024528,-0.00001718,0.00008890,0.00182263,-0.00124985,-
 0.00331797,-0.00054308,0.00060341,0.00033587,-0.00007085,0.00007162,-0
 .00030376,0.00049731,0.00064181,-0.00010445,-0.00299631,-0.00554850,0.
 00040921,-0.03555094,0.10446012,-0.00753412,0.01037022,-0.02314568,-0.
 00111794,0.00074425,0.00118418,0.00050550,0.00000273,-0.00009602,-0.00
 013723,0.00013528,0.00012389,-0.00016013,-0.00157041,0.00060448,-0.066
 92417,0.09524453,-0.23894765,0.00004028,0.00005528,-0.00004767,0.00087
 211,-0.00036566,0.00013062,-0.00017634,-0.00021055,0.00040410,0.002201
 27,-0.00349197,-0.00324506,-0.00026122,-0.00027046,0.00063561,0.000115
 86,0.00000857,-0.00004377,0.00034187,0.00005160,0.00104643,0.00013946,
 -0.00036970,0.00112178,0.07151061,-0.09981570,0.25989571,-0.00897939,-
 0.00048162,-0.00169491,0.00104436,0.00116382,0.00254832,0.00059385,0.0
 0008017,-0.00018340,0.00078234,-0.00222801,-0.00025366,-0.00774336,0.0
 0142258,-0.00004471,-0.31755661,-0.00282450,-0.00438370,-0.00005056,0.
 00002920,-0.00009235,0.00013185,-0.00000261,-0.00007970,-0.00075168,-0
 .00006976,-0.00006637,0.00030404,-0.00021269,0.00035563,0.00047646,0.0
 0044382,-0.00003889,-0.00047968,0.00004273,0.00025977,-0.00006338,-0.0
 0032697,-0.00024758,0.00081006,-0.00006964,0.00038070,-0.00786531,-0.0
 0037799,0.00058419,0.33934702,0.01855981,-0.00037575,0.00199062,0.0007
 6924,-0.00156659,-0.00410023,-0.00024360,-0.00043829,-0.00020209,-0.00
 055435,-0.00651769,-0.00074295,-0.03258995,0.00008654,0.00072000,-0.00
 160437,-0.04716984,0.00024109,-0.00001784,0.00021073,0.00001424,-0.000
 28483,0.00014940,0.00010542,0.00135743,0.00011482,-0.00016069,-0.00059
 331,0.00046644,0.00013384,0.00020981,0.00021892,0.00058631,-0.00169398
 ,-0.00006781,0.00059116,0.00031578,0.00054169,-0.00044324,0.00002920,0
 .00123357,0.00037095,0.01292948,-0.00019676,-0.00051801,0.00341149,0.0
 5331061,0.02670427,0.00055597,0.00124965,0.00073250,-0.00289758,-0.004
 26645,-0.00036534,-0.00033523,-0.00000146,0.00031177,0.00038821,0.0008
 9953,0.00169416,0.00111577,-0.00098431,-0.00655940,0.00016412,-0.04865
 602,-0.00000616,0.00010122,-0.00007042,0.00018136,-0.00020126,-0.00001
 263,0.00150349,-0.00017644,0.00015261,-0.00008493,0.00068647,0.0006204
 5,-0.00053362,0.00024986,0.00097421,0.00009887,-0.00005327,0.00014164,
 -0.00029514,0.00006437,-0.00011896,0.00050398,-0.00002559,0.00041209,-
 0.02684246,-0.00105016,0.00037905,0.00295665,0.00141356,0.04928102\\-0
 .00000879,0.00000450,-0.00000099,0.00000379,-0.00001027,-0.00001183,0.
 00000590,-0.00000874,0.00001834,0.00000848,-0.00000759,0.00003103,-0.0
 0001378,0.00001651,-0.00001325,0.00000256,-0.00000796,0.00000141,-0.00
 000106,0.00000268,-0.00000848,-0.00000221,0.00000715,0.00000020,-0.000
 00227,-0.00000151,-0.00000287,0.00000253,0.00000185,0.00000419,-0.0000
 0393,-0.00000124,0.00000105,0.00000167,0.00000167,-0.00001426,0.000006
 69,0.00000093,0.00000054,0.00000282,-0.00000258,0.00000120,0.00000046,
 0.00000272,-0.00000401,-0.00000286,0.00000188,-0.00000228\\\@


 MICHAEL FARADAY, ASKED BY A POLITICIAN WHAT GOOD
 HIS ELECTRICAL DISCOVERIES WERE, REPLIED 
 "AT PRESENT I DO NOT KNOW, BUT ONE DAY YOU WILL BE
 ABLE TO TAX THEM."
 Job cpu time:       0 days  0 hours 13 minutes 27.1 seconds.
 Elapsed time:       0 days  0 hours  0 minutes 34.0 seconds.
 File lengths (MBytes):  RWF=     35 Int=      0 D2E=      0 Chk=      3 Scr=      1
 Normal termination of Gaussian 16 at Thu Jun  1 09:12:10 2023.
