compute-0-23
 Entering Gaussian System, Link 0=g16
 Initial command:
 /share/apps/g16/E6B-113X_avx2/g16/l1.exe "/state/partition1/csokas/Gau-44823.inp" -scrdir="/state/partition1/csokas/"
 Entering Link 1 = /share/apps/g16/E6B-113X_avx2/g16/l1.exe PID=     44824.
  
 Copyright (c) 1988,1990,1992,1993,1995,1998,2003,2009,2016,
            Gaussian, Inc.  All Rights Reserved.
  
 This is part of the Gaussian(R) 16 program.  It is based on
 the Gaussian(R) 09 system (copyright 2009, Gaussian, Inc.),
 the Gaussian(R) 03 system (copyright 2003, Gaussian, Inc.),
 the Gaussian(R) 98 system (copyright 1998, Gaussian, Inc.),
 the Gaussian(R) 94 system (copyright 1995, Gaussian, Inc.),
 the Gaussian 92(TM) system (copyright 1992, Gaussian, Inc.),
 the Gaussian 90(TM) system (copyright 1990, Gaussian, Inc.),
 the Gaussian 88(TM) system (copyright 1988, Gaussian, Inc.),
 the Gaussian 86(TM) system (copyright 1986, Carnegie Mellon
 University), and the Gaussian 82(TM) system (copyright 1983,
 Carnegie Mellon University). Gaussian is a federally registered
 trademark of Gaussian, Inc.
  
 This software contains proprietary and confidential information,
 including trade secrets, belonging to Gaussian, Inc.
  
 This software is provided under written license and may be
 used, copied, transmitted, or stored only in accord with that
 written license.
  
 The following legend is applicable only to US Government
 contracts under FAR:
  
                    RESTRICTED RIGHTS LEGEND
  
 Use, reproduction and disclosure by the US Government is
 subject to restrictions as set forth in subparagraphs (a)
 and (c) of the Commercial Computer Software - Restricted
 Rights clause in FAR 52.227-19.
  
 Gaussian, Inc.
 340 Quinnipiac St., Bldg. 40, Wallingford CT 06492
  
  
 ---------------------------------------------------------------
 Warning -- This program may not be used in any manner that
 competes with the business of Gaussian, Inc. or will provide
 assistance to any competitor of Gaussian, Inc.  The licensee
 of this program is prohibited from giving any competitor of
 Gaussian, Inc. access to this program.  By using this program,
 the user acknowledges that Gaussian, Inc. is engaged in the
 business of creating and licensing software in the field of
 computational chemistry and represents and warrants to the
 licensee that it is not a competitor of Gaussian, Inc. and that
 it will not use this program in any manner prohibited above.
 ---------------------------------------------------------------
  

 Cite this work as:
 Gaussian 16, Revision A.03,
 M. J. Frisch, G. W. Trucks, H. B. Schlegel, G. E. Scuseria, 
 M. A. Robb, J. R. Cheeseman, G. Scalmani, V. Barone, 
 G. A. Petersson, H. Nakatsuji, X. Li, M. Caricato, A. V. Marenich, 
 J. Bloino, B. G. Janesko, R. Gomperts, B. Mennucci, H. P. Hratchian, 
 J. V. Ortiz, A. F. Izmaylov, J. L. Sonnenberg, D. Williams-Young, 
 F. Ding, F. Lipparini, F. Egidi, J. Goings, B. Peng, A. Petrone, 
 T. Henderson, D. Ranasinghe, V. G. Zakrzewski, J. Gao, N. Rega, 
 G. Zheng, W. Liang, M. Hada, M. Ehara, K. Toyota, R. Fukuda, 
 J. Hasegawa, M. Ishida, T. Nakajima, Y. Honda, O. Kitao, H. Nakai, 
 T. Vreven, K. Throssell, J. A. Montgomery, Jr., J. E. Peralta, 
 F. Ogliaro, M. J. Bearpark, J. J. Heyd, E. N. Brothers, K. N. Kudin, 
 V. N. Staroverov, T. A. Keith, R. Kobayashi, J. Normand, 
 K. Raghavachari, A. P. Rendell, J. C. Burant, S. S. Iyengar, 
 J. Tomasi, M. Cossi, J. M. Millam, M. Klene, C. Adamo, R. Cammi, 
 J. W. Ochterski, R. L. Martin, K. Morokuma, O. Farkas, 
 J. B. Foresman, and D. J. Fox, Gaussian, Inc., Wallingford CT, 2016.
 
 ******************************************
 Gaussian 16:  ES64L-G16RevA.03 25-Dec-2016
                 1-Jun-2023 
 ******************************************
 %chk=ethene.chk
 %nproc=24
 Will use up to   24 processors via shared memory.
 %mem=24000MB
 -----------------------------------------------------------------
 #P wB97XD/Def2SVP opt freq=noraman Int(Grid=UltraFine) nosymmetry
 -----------------------------------------------------------------
 1/18=20,19=15,26=4,38=1/1,3;
 2/9=110,12=2,15=1,17=6,18=5,40=1/2;
 3/5=43,7=101,11=2,25=1,30=1,71=1,74=-58,75=-5/1,2,3;
 4//1;
 5/5=2,38=5/2;
 6/7=2,8=2,9=2,10=2,28=1/1;
 7/30=1/1,2,3,16;
 1/18=20,19=15,26=4/3(2);
 2/9=110,15=1/2;
 99//99;
 2/9=110,15=1/2;
 3/5=43,7=101,11=2,25=1,30=1,71=1,74=-58,75=-5/1,2,3;
 4/5=5,16=3,69=1/1;
 5/5=2,38=5/2;
 7/30=1/1,2,3,16;
 1/18=20,19=15,26=4/3(-5);
 2/9=110,15=1/2;
 6/7=2,8=2,9=2,10=2,19=2,28=1/1;
 99/9=1/99;
 Leave Link    1 at Thu Jun  1 09:09:50 2023, MaxMem=  3145728000 cpu:               1.4 elap:               0.1
 (Enter /share/apps/g16/E6B-113X_avx2/g16/l101.exe)
 -------------------
 Title Card Required
 -------------------
 Symbolic Z-matrix:
 Charge =  0 Multiplicity = 1
 C                     1.09013   1.77223   0. 
 H                     1.6233    0.84452   0. 
 H                     0.02013   1.77223   0. 
 C                     1.76541   2.94721   0. 
 H                     1.23224   3.87491   0. 
 H                     2.83541   2.94721   0. 
 
 ITRead=  0  0  0  0  0  0
 MicOpt= -1 -1 -1 -1 -1 -1
 NAtoms=      6 NQM=        6 NQMF=       0 NMMI=      0 NMMIF=      0
                NMic=       0 NMicF=      0.
                    Isotopes and Nuclear Properties:
 (Nuclear quadrupole moments (NQMom) in fm**2, nuclear magnetic moments (NMagM)
  in nuclear magnetons)

  Atom         1           2           3           4           5           6
 IAtWgt=          12           1           1          12           1           1
 AtmWgt=  12.0000000   1.0078250   1.0078250  12.0000000   1.0078250   1.0078250
 NucSpn=           0           1           1           0           1           1
 AtZEff=   0.0000000   0.0000000   0.0000000   0.0000000   0.0000000   0.0000000
 NQMom=    0.0000000   0.0000000   0.0000000   0.0000000   0.0000000   0.0000000
 NMagM=    0.0000000   2.7928460   2.7928460   0.0000000   2.7928460   2.7928460
 AtZNuc=   6.0000000   1.0000000   1.0000000   6.0000000   1.0000000   1.0000000
 Leave Link  101 at Thu Jun  1 09:09:51 2023, MaxMem=  3145728000 cpu:              10.8 elap:               0.5
 (Enter /share/apps/g16/E6B-113X_avx2/g16/l103.exe)

 GradGradGradGradGradGradGradGradGradGradGradGradGradGradGradGradGradGrad
 Berny optimization.
 Initialization pass.
                           ----------------------------
                           !    Initial Parameters    !
                           ! (Angstroms and Degrees)  !
 --------------------------                            --------------------------
 ! Name  Definition              Value          Derivative Info.                !
 --------------------------------------------------------------------------------
 ! R1    R(1,2)                  1.07           estimate D2E/DX2                !
 ! R2    R(1,3)                  1.07           estimate D2E/DX2                !
 ! R3    R(1,4)                  1.3552         estimate D2E/DX2                !
 ! R4    R(4,5)                  1.07           estimate D2E/DX2                !
 ! R5    R(4,6)                  1.07           estimate D2E/DX2                !
 ! A1    A(2,1,3)              119.8865         estimate D2E/DX2                !
 ! A2    A(2,1,4)              120.2269         estimate D2E/DX2                !
 ! A3    A(3,1,4)              119.8865         estimate D2E/DX2                !
 ! A4    A(1,4,5)              120.2269         estimate D2E/DX2                !
 ! A5    A(1,4,6)              119.8865         estimate D2E/DX2                !
 ! A6    A(5,4,6)              119.8865         estimate D2E/DX2                !
 ! D1    D(2,1,4,5)            180.0            estimate D2E/DX2                !
 ! D2    D(2,1,4,6)              0.0            estimate D2E/DX2                !
 ! D3    D(3,1,4,5)              0.0            estimate D2E/DX2                !
 ! D4    D(3,1,4,6)            180.0            estimate D2E/DX2                !
 --------------------------------------------------------------------------------
 Trust Radius=3.00D-01 FncErr=1.00D-07 GrdErr=1.00D-06 EigMax=2.50D+02 EigMin=1.00D-04
 Number of steps in this run=     25 maximum allowed number of steps=    100.
 GradGradGradGradGradGradGradGradGradGradGradGradGradGradGradGradGradGrad

 Leave Link  103 at Thu Jun  1 09:09:51 2023, MaxMem=  3145728000 cpu:               0.1 elap:               0.0
 (Enter /share/apps/g16/E6B-113X_avx2/g16/l202.exe)
                          Input orientation:                          
 ---------------------------------------------------------------------
 Center     Atomic      Atomic             Coordinates (Angstroms)
 Number     Number       Type             X           Y           Z
 ---------------------------------------------------------------------
      1          6           0        1.090134    1.772229    0.000000
      2          1           0        1.623298    0.844524    0.000000
      3          1           0        0.020134    1.772229    0.000000
      4          6           0        1.765408    2.947206    0.000000
      5          1           0        1.232245    3.874911    0.000000
      6          1           0        2.835408    2.947206    0.000000
 ---------------------------------------------------------------------
                    Distance matrix (angstroms):
                    1          2          3          4          5
     1  C    0.000000
     2  H    1.070000   0.000000
     3  H    1.070000   1.852234   0.000000
     4  C    1.355200   2.107479   2.103938   0.000000
     5  H    2.107479   3.055514   2.427032   1.070000   0.000000
     6  H    2.103938   2.427032   3.050630   1.070000   1.852234
                    6
     6  H    0.000000
 Symmetry turned off by external request.
 Stoichiometry    C2H4
 Framework group  C2H[SGH(C2H4)]
 Deg. of freedom     5
 Full point group                 C2H     NOp   4
 Rotational constants (GHZ):         146.1648709          29.8053187          24.7569805
 Leave Link  202 at Thu Jun  1 09:09:51 2023, MaxMem=  3145728000 cpu:               0.1 elap:               0.0
 (Enter /share/apps/g16/E6B-113X_avx2/g16/l301.exe)
 Standard basis: def2SVP (5D, 7F)
 Ernie: Thresh=  0.10000D-02 Tol=  0.10000D-05 Strict=F.
    48 basis functions,    78 primitive gaussians,    50 cartesian basis functions
     8 alpha electrons        8 beta electrons
       nuclear repulsion energy        33.3121055433 Hartrees.
 IExCor= 4639 DFT=T Ex+Corr=wB97XD ExCW=0 ScaHFX=  1.000000
 ScaDFX=  1.000000  1.000000  1.000000  1.000000 ScalE2=  1.000000  1.000000
 IRadAn=      5 IRanWt=     -1 IRanGd=            0 ICorTp=0 IEmpDi=121
 HFx  wShort=  0.000000 wLong=  0.200000 cFull=  0.222036 cShort=  0.000000 cLong=  0.777964
 DFx  wShort=  0.000000 wLong=  0.200000 cFull=  0.000000 cShort=  0.000000 cLong=  1.000000
 NAtoms=    6 NActive=    6 NUniq=    6 SFac= 1.00D+00 NAtFMM=   60 NAOKFM=F Big=F
 Integral buffers will be    131072 words long.
 Raffenetti 2 integral format.
 Two-electron integral symmetry is turned off.
 R6Disp:  Grimme-D2 Dispersion energy=       -0.0008471384 Hartrees.
 Nuclear repulsion after empirical dispersion term =       33.3112584049 Hartrees.
 Leave Link  301 at Thu Jun  1 09:09:51 2023, MaxMem=  3145728000 cpu:               0.6 elap:               0.0
 (Enter /share/apps/g16/E6B-113X_avx2/g16/l302.exe)
 NPDir=0 NMtPBC=     1 NCelOv=     1 NCel=       1 NClECP=     1 NCelD=      1
         NCelK=      1 NCelE2=     1 NClLst=     1 CellRange=     0.0.
 One-electron integrals computed using PRISM.
   1 Symmetry operations used in ECPInt.
 ECPInt:  NShTT=     300 NPrTT=    1028 LenC2=     301 LenP2D=     975.
 LDataN:  DoStor=T MaxTD1= 4 Len=   56
 NBasis=    48 RedAO= T EigKep=  4.24D-03  NBF=    48
 NBsUse=    48 1.00D-06 EigRej= -1.00D+00 NBFU=    48
 Precomputing XC quadrature grid using
 IXCGrd= 4 IRadAn=           5 IRanWt=          -1 IRanGd=           0 AccXCQ= 0.00D+00.
 Generated NRdTot=       0 NPtTot=           0 NUsed=           0 NTot=          32
 NSgBfM=    50    50    50    50    50 MxSgAt=     6 MxSgA2=     6.
 Leave Link  302 at Thu Jun  1 09:09:51 2023, MaxMem=  3145728000 cpu:               2.7 elap:               0.1
 (Enter /share/apps/g16/E6B-113X_avx2/g16/l303.exe)
 DipDrv:  MaxL=1.
 Leave Link  303 at Thu Jun  1 09:09:51 2023, MaxMem=  3145728000 cpu:               0.4 elap:               0.0
 (Enter /share/apps/g16/E6B-113X_avx2/g16/l401.exe)
 ExpMin= 1.22D-01 ExpMax= 1.24D+03 ExpMxC= 1.86D+02 IAcc=3 IRadAn=         5 AccDes= 0.00D+00
 Harris functional with IExCor= 4639 and IRadAn=       5 diagonalized for initial guess.
 HarFok:  IExCor= 4639 AccDes= 0.00D+00 IRadAn=         5 IDoV= 1 UseB2=F ITyADJ=14
 ICtDFT=  3500011 ScaDFX=  1.000000  1.000000  1.000000  1.000000
 FoFCou: FMM=F IPFlag=           0 FMFlag=      100000 FMFlg1=           0
         NFxFlg=           0 DoJE=T BraDBF=F KetDBF=T FulRan=T
         wScrn=  0.000000 ICntrl=       500 IOpCl=  0 I1Cent=   200000004 NGrid=           0
         NMat0=    1 NMatS0=      1 NMatT0=    0 NMatD0=    1 NMtDS0=    0 NMtDT0=    0
 Symmetry not used in FoFCou.
 Harris En= -74.6024093594833    
 JPrj=0 DoOrth=F DoCkMO=F.
 Leave Link  401 at Thu Jun  1 09:09:51 2023, MaxMem=  3145728000 cpu:               3.8 elap:               0.2
 (Enter /share/apps/g16/E6B-113X_avx2/g16/l502.exe)
 Keep R1 ints in memory in canonical form, NReq=22299564.
 FoFCou: FMM=F IPFlag=           0 FMFlag=           0 FMFlg1=           0
         NFxFlg=           0 DoJE=F BraDBF=F KetDBF=F FulRan=T
         wScrn=  0.000000 ICntrl=       600 IOpCl=  0 I1Cent=           0 NGrid=           0
         NMat0=    1 NMatS0=   1176 NMatT0=    0 NMatD0=    1 NMtDS0=    0 NMtDT0=    0
 Symmetry not used in FoFCou.
 Two-electron integral symmetry not used.
 Closed shell SCF:
 Using DIIS extrapolation, IDIIS=  1040.
 NGot=  3145728000 LenX=  3144337052 LenY=  3144334111
 Requested convergence on RMS density matrix=1.00D-08 within 128 cycles.
 Requested convergence on MAX density matrix=1.00D-06.
 Requested convergence on             energy=1.00D-06.
 No special actions if energy rises.
 Integral accuracy reduced to 1.0D-05 until final iterations.

 Cycle   1  Pass 0  IDiag  1:
 E= -78.4854285265423    
 DIIS: error= 3.24D-02 at cycle   1 NSaved=   1.
 NSaved= 1 IEnMin= 1 EnMin= -78.4854285265423     IErMin= 1 ErrMin= 3.24D-02
 ErrMax= 3.24D-02  0.00D+00 EMaxC= 1.00D-01 BMatC= 3.23D-02 BMatP= 3.23D-02
 IDIUse=3 WtCom= 6.76D-01 WtEn= 3.24D-01
 Coeff-Com:  0.100D+01
 Coeff-En:   0.100D+01
 Coeff:      0.100D+01
 Gap=     0.426 Goal=   None    Shift=    0.000
 GapD=    0.426 DampG=2.000 DampE=0.500 DampFc=1.0000 IDamp=-1.
 RMSDP=2.59D-03 MaxDP=2.60D-02              OVMax= 4.86D-02

 Cycle   2  Pass 0  IDiag  1:
 E= -78.4959218204060     Delta-E=       -0.010493293864 Rises=F Damp=F
 DIIS: error= 8.01D-03 at cycle   2 NSaved=   2.
 NSaved= 2 IEnMin= 2 EnMin= -78.4959218204060     IErMin= 2 ErrMin= 8.01D-03
 ErrMax= 8.01D-03  0.00D+00 EMaxC= 1.00D-01 BMatC= 2.50D-03 BMatP= 3.23D-02
 IDIUse=3 WtCom= 9.20D-01 WtEn= 8.01D-02
 Coeff-Com:  0.119D+00 0.881D+00
 Coeff-En:   0.000D+00 0.100D+01
 Coeff:      0.110D+00 0.890D+00
 Gap=     0.433 Goal=   None    Shift=    0.000
 RMSDP=1.32D-03 MaxDP=2.03D-02 DE=-1.05D-02 OVMax= 1.83D-02

 Cycle   3  Pass 0  IDiag  1:
 E= -78.4979681065812     Delta-E=       -0.002046286175 Rises=F Damp=F
 DIIS: error= 4.13D-03 at cycle   3 NSaved=   3.
 NSaved= 3 IEnMin= 3 EnMin= -78.4979681065812     IErMin= 3 ErrMin= 4.13D-03
 ErrMax= 4.13D-03  0.00D+00 EMaxC= 1.00D-01 BMatC= 5.21D-04 BMatP= 2.50D-03
 IDIUse=3 WtCom= 9.59D-01 WtEn= 4.13D-02
 Coeff-Com: -0.363D-02 0.311D+00 0.692D+00
 Coeff-En:   0.000D+00 0.239D-01 0.976D+00
 Coeff:     -0.348D-02 0.299D+00 0.704D+00
 Gap=     0.430 Goal=   None    Shift=    0.000
 RMSDP=4.04D-04 MaxDP=5.28D-03 DE=-2.05D-03 OVMax= 7.09D-03

 Cycle   4  Pass 0  IDiag  1:
 E= -78.4985272092727     Delta-E=       -0.000559102691 Rises=F Damp=F
 DIIS: error= 1.64D-04 at cycle   4 NSaved=   4.
 NSaved= 4 IEnMin= 4 EnMin= -78.4985272092727     IErMin= 4 ErrMin= 1.64D-04
 ErrMax= 1.64D-04  0.00D+00 EMaxC= 1.00D-01 BMatC= 8.92D-07 BMatP= 5.21D-04
 IDIUse=3 WtCom= 9.98D-01 WtEn= 1.64D-03
 Coeff-Com:  0.221D-03-0.629D-01-0.977D-01 0.116D+01
 Coeff-En:   0.000D+00 0.000D+00 0.000D+00 0.100D+01
 Coeff:      0.221D-03-0.628D-01-0.975D-01 0.116D+01
 Gap=     0.430 Goal=   None    Shift=    0.000
 RMSDP=3.86D-05 MaxDP=5.12D-04 DE=-5.59D-04 OVMax= 3.96D-04

 Cycle   5  Pass 0  IDiag  1:
 E= -78.4985284641649     Delta-E=       -0.000001254892 Rises=F Damp=F
 DIIS: error= 1.39D-05 at cycle   5 NSaved=   5.
 NSaved= 5 IEnMin= 5 EnMin= -78.4985284641649     IErMin= 5 ErrMin= 1.39D-05
 ErrMax= 1.39D-05  0.00D+00 EMaxC= 1.00D-01 BMatC= 4.27D-09 BMatP= 8.92D-07
 IDIUse=1 WtCom= 1.00D+00 WtEn= 0.00D+00
 Coeff-Com:  0.106D-03-0.916D-02-0.174D-01 0.808D-01 0.946D+00
 Coeff:      0.106D-03-0.916D-02-0.174D-01 0.808D-01 0.946D+00
 Gap=     0.430 Goal=   None    Shift=    0.000
 RMSDP=4.44D-06 MaxDP=3.97D-05 DE=-1.25D-06 OVMax= 4.04D-05

 Initial convergence to 1.0D-05 achieved.  Increase integral accuracy.
 Cycle   6  Pass 1  IDiag  1:
 E= -78.4985525708743     Delta-E=       -0.000024106709 Rises=F Damp=F
 DIIS: error= 2.83D-05 at cycle   1 NSaved=   1.
 NSaved= 1 IEnMin= 1 EnMin= -78.4985525708743     IErMin= 1 ErrMin= 2.83D-05
 ErrMax= 2.83D-05  0.00D+00 EMaxC= 1.00D-01 BMatC= 3.29D-08 BMatP= 3.29D-08
 IDIUse=1 WtCom= 1.00D+00 WtEn= 0.00D+00
 Coeff-Com:  0.100D+01
 Coeff:      0.100D+01
 Gap=     0.430 Goal=   None    Shift=    0.000
 RMSDP=4.44D-06 MaxDP=3.97D-05 DE=-2.41D-05 OVMax= 4.40D-05

 Cycle   7  Pass 1  IDiag  1:
 E= -78.4985526010286     Delta-E=       -0.000000030154 Rises=F Damp=F
 DIIS: error= 4.61D-06 at cycle   2 NSaved=   2.
 NSaved= 2 IEnMin= 2 EnMin= -78.4985526010286     IErMin= 2 ErrMin= 4.61D-06
 ErrMax= 4.61D-06  0.00D+00 EMaxC= 1.00D-01 BMatC= 5.70D-10 BMatP= 3.29D-08
 IDIUse=1 WtCom= 1.00D+00 WtEn= 0.00D+00
 Coeff-Com: -0.788D-01 0.108D+01
 Coeff:     -0.788D-01 0.108D+01
 Gap=     0.430 Goal=   None    Shift=    0.000
 RMSDP=6.50D-07 MaxDP=8.70D-06 DE=-3.02D-08 OVMax= 1.15D-05

 Cycle   8  Pass 1  IDiag  1:
 E= -78.4985526017117     Delta-E=       -0.000000000683 Rises=F Damp=F
 DIIS: error= 1.65D-06 at cycle   3 NSaved=   3.
 NSaved= 3 IEnMin= 3 EnMin= -78.4985526017117     IErMin= 3 ErrMin= 1.65D-06
 ErrMax= 1.65D-06  0.00D+00 EMaxC= 1.00D-01 BMatC= 8.72D-11 BMatP= 5.70D-10
 IDIUse=1 WtCom= 1.00D+00 WtEn= 0.00D+00
 Coeff-Com: -0.346D-01 0.304D+00 0.730D+00
 Coeff:     -0.346D-01 0.304D+00 0.730D+00
 Gap=     0.430 Goal=   None    Shift=    0.000
 RMSDP=2.09D-07 MaxDP=2.55D-06 DE=-6.83D-10 OVMax= 3.12D-06

 Cycle   9  Pass 1  IDiag  1:
 E= -78.4985526018081     Delta-E=       -0.000000000096 Rises=F Damp=F
 DIIS: error= 3.01D-07 at cycle   4 NSaved=   4.
 NSaved= 4 IEnMin= 4 EnMin= -78.4985526018081     IErMin= 4 ErrMin= 3.01D-07
 ErrMax= 3.01D-07  0.00D+00 EMaxC= 1.00D-01 BMatC= 3.46D-12 BMatP= 8.72D-11
 IDIUse=1 WtCom= 1.00D+00 WtEn= 0.00D+00
 Coeff-Com:  0.348D-02-0.593D-01 0.768D-01 0.979D+00
 Coeff:      0.348D-02-0.593D-01 0.768D-01 0.979D+00
 Gap=     0.430 Goal=   None    Shift=    0.000
 RMSDP=5.75D-08 MaxDP=6.51D-07 DE=-9.63D-11 OVMax= 8.47D-07

 Cycle  10  Pass 1  IDiag  1:
 E= -78.4985526018130     Delta-E=       -0.000000000005 Rises=F Damp=F
 DIIS: error= 3.49D-08 at cycle   5 NSaved=   5.
 NSaved= 5 IEnMin= 5 EnMin= -78.4985526018130     IErMin= 5 ErrMin= 3.49D-08
 ErrMax= 3.49D-08  0.00D+00 EMaxC= 1.00D-01 BMatC= 3.36D-14 BMatP= 3.46D-12
 IDIUse=1 WtCom= 1.00D+00 WtEn= 0.00D+00
 Coeff-Com:  0.991D-03-0.940D-02-0.166D-01 0.240D-01 0.100D+01
 Coeff:      0.991D-03-0.940D-02-0.166D-01 0.240D-01 0.100D+01
 Gap=     0.430 Goal=   None    Shift=    0.000
 RMSDP=1.06D-08 MaxDP=6.93D-08 DE=-4.95D-12 OVMax= 1.51D-07

 Cycle  11  Pass 1  IDiag  1:
 E= -78.4985526018130     Delta-E=        0.000000000000 Rises=F Damp=F
 DIIS: error= 4.10D-09 at cycle   6 NSaved=   6.
 NSaved= 6 IEnMin= 6 EnMin= -78.4985526018130     IErMin= 6 ErrMin= 4.10D-09
 ErrMax= 4.10D-09  0.00D+00 EMaxC= 1.00D-01 BMatC= 4.55D-16 BMatP= 3.36D-14
 IDIUse=1 WtCom= 1.00D+00 WtEn= 0.00D+00
 Coeff-Com: -0.727D-04 0.110D-02-0.953D-03-0.174D-01-0.523D-01 0.107D+01
 Coeff:     -0.727D-04 0.110D-02-0.953D-03-0.174D-01-0.523D-01 0.107D+01
 Gap=     0.430 Goal=   None    Shift=    0.000
 RMSDP=2.04D-09 MaxDP=1.39D-08 DE=-2.84D-14 OVMax= 2.14D-08

 SCF Done:  E(RwB97XD) =  -78.4985526018     A.U. after   11 cycles
            NFock= 11  Conv=0.20D-08     -V/T= 2.0123
 KE= 7.754410978842D+01 PE=-2.476157347952D+02 EE= 5.826181400012D+01
 Leave Link  502 at Thu Jun  1 09:09:52 2023, MaxMem=  3145728000 cpu:              14.0 elap:               0.6
 (Enter /share/apps/g16/E6B-113X_avx2/g16/l601.exe)
 Copying SCF densities to generalized density rwf, IOpCl= 0 IROHF=0.

 **********************************************************************

            Population analysis using the SCF density.

 **********************************************************************

 Alpha  occ. eigenvalues --  -10.29810 -10.29749  -0.84889  -0.66909  -0.56223
 Alpha  occ. eigenvalues --   -0.49732  -0.44632  -0.35188
 Alpha virt. eigenvalues --    0.07847   0.16872   0.19315   0.20664   0.27316
 Alpha virt. eigenvalues --    0.39779   0.48860   0.51756   0.53025   0.58195
 Alpha virt. eigenvalues --    0.63499   0.66829   0.74925   0.76836   0.77748
 Alpha virt. eigenvalues --    0.79183   0.88690   1.15879   1.25319   1.31481
 Alpha virt. eigenvalues --    1.36003   1.63832   1.71099   1.72733   1.79474
 Alpha virt. eigenvalues --    1.83472   1.89269   1.91268   2.00163   2.19014
 Alpha virt. eigenvalues --    2.25912   2.37254   2.45931   2.49365   2.53320
 Alpha virt. eigenvalues --    2.86201   2.86828   2.89698   3.22251   3.39742
          Condensed to atoms (all electrons):
               1          2          3          4          5          6
     1  C    4.646198   0.402454   0.402267   0.698784  -0.023654  -0.023815
     2  H    0.402454   0.620169  -0.042070  -0.023654   0.007728  -0.015887
     3  H    0.402267  -0.042070   0.620724  -0.023815  -0.015887   0.007804
     4  C    0.698784  -0.023654  -0.023815   4.646198   0.402454   0.402267
     5  H   -0.023654   0.007728  -0.015887   0.402454   0.620169  -0.042070
     6  H   -0.023815  -0.015887   0.007804   0.402267  -0.042070   0.620724
 Mulliken charges:
               1
     1  C   -0.102236
     2  H    0.051259
     3  H    0.050976
     4  C   -0.102236
     5  H    0.051259
     6  H    0.050976
 Sum of Mulliken charges =   0.00000
 Mulliken charges with hydrogens summed into heavy atoms:
               1
     1  C    0.000000
     4  C    0.000000
 Electronic spatial extent (au):  <R**2>=            516.9292
 Charge=              0.0000 electrons
 Dipole moment (field-independent basis, Debye):
    X=              0.0000    Y=              0.0000    Z=              0.0000  Tot=              0.0000
 Quadrupole moment (field-independent basis, Debye-Ang):
   XX=            -12.1091   YY=            -12.1940   ZZ=            -15.1562
   XY=             -0.0969   XZ=              0.0000   YZ=              0.0000
 Traceless Quadrupole moment (field-independent basis, Debye-Ang):
   XX=              1.0440   YY=              0.9591   ZZ=             -2.0031
   XY=             -0.0969   XZ=              0.0000   YZ=              0.0000
 Octapole moment (field-independent basis, Debye-Ang**2):
  XXX=            -51.8672  YYY=            -86.3232  ZZZ=              0.0000  XYY=            -17.8673
  XXY=            -28.8507  XXZ=              0.0000  XZZ=            -21.6396  YZZ=            -35.7644
  YYZ=              0.0000  XYZ=              0.0000
 Hexadecapole moment (field-independent basis, Debye-Ang**3):
 XXXX=           -181.4902 YYYY=           -461.7114 ZZZZ=            -16.5228 XXXY=           -130.4887
 XXXZ=              0.0000 YYYX=           -135.4330 YYYZ=              0.0000 ZZZX=              0.0000
 ZZZY=              0.0000 XXYY=           -109.4023 XXZZ=            -40.3103 YYZZ=            -97.3404
 XXYZ=              0.0000 YYXZ=              0.0000 ZZXY=            -54.0964
 N-N= 3.331125840488D+01 E-N=-2.476157348225D+02  KE= 7.754410978842D+01
 No NMR shielding tensors so no spin-rotation constants.
 Leave Link  601 at Thu Jun  1 09:09:52 2023, MaxMem=  3145728000 cpu:               1.7 elap:               0.1
 (Enter /share/apps/g16/E6B-113X_avx2/g16/l701.exe)
 ... and contract with generalized density number  0.
 Compute integral first derivatives.
 R6Disp: Adding Grimme-D2 dispersion energy 1st derivatives to the gradient.
   1 Symmetry operations used in ECPInt.
 ECPInt:  NShTT=     300 NPrTT=    1028 LenC2=     301 LenP2D=     975.
 LDataN:  DoStor=T MaxTD1= 5 Len=  102
 Leave Link  701 at Thu Jun  1 09:09:52 2023, MaxMem=  3145728000 cpu:               1.9 elap:               0.1
 (Enter /share/apps/g16/E6B-113X_avx2/g16/l702.exe)
 L702 exits ... SP integral derivatives will be done elsewhere.
 Leave Link  702 at Thu Jun  1 09:09:52 2023, MaxMem=  3145728000 cpu:               0.3 elap:               0.0
 (Enter /share/apps/g16/E6B-113X_avx2/g16/l703.exe)
 Integral derivatives from FoFJK, PRISM(SPDF).
 Compute integral first derivatives, UseDBF=F ICtDFT=           0.
 Calling FoFJK, ICntrl=      2127 FMM=F ISym2X=0 I1Cent= 0 IOpClX= 0 NMat=1 NMatS=1 NMatT=0.
 FoFJK:  IHMeth= 1 ICntrl=    2127 DoSepK=T KAlg= 0 I1Cent=           0 FoldK=F
 IRaf=         1 NMat=       1 IRICut=       1 DoRegI=T DoRafI=F ISym2E= 0 IDoP0=0 IntGTp=1.
 FoFCou: FMM=F IPFlag=           0 FMFlag=      100000 FMFlg1=         800
         NFxFlg=           0 DoJE=F BraDBF=F KetDBF=F FulRan=T
         wScrn=  0.000000 ICntrl=      2527 IOpCl=  0 I1Cent=           0 NGrid=           0
         NMat0=    1 NMatS0=      1 NMatT0=    0 NMatD0=    1 NMtDS0=    0 NMtDT0=    0
 Symmetry not used in FoFCou.
 Leave Link  703 at Thu Jun  1 09:09:53 2023, MaxMem=  3145728000 cpu:               8.1 elap:               0.4
 (Enter /share/apps/g16/E6B-113X_avx2/g16/l716.exe)
 Dipole        =-1.60599356D-09-3.10947001D-09-1.95772254D-15
 -------------------------------------------------------------------
 Center     Atomic                   Forces (Hartrees/Bohr)
 Number     Number              X              Y              Z
 -------------------------------------------------------------------
      1        6           0.023602490    0.042560296    0.000000000
      2        1           0.005524994   -0.016227078    0.000000000
      3        1          -0.016940152   -0.003738223    0.000000000
      4        6          -0.023602493   -0.042560293    0.000000000
      5        1          -0.005524992    0.016227075    0.000000000
      6        1           0.016940152    0.003738224    0.000000000
 -------------------------------------------------------------------
 Cartesian Forces:  Max     0.042560296 RMS     0.018145226
 Leave Link  716 at Thu Jun  1 09:09:53 2023, MaxMem=  3145728000 cpu:               0.7 elap:               0.0
 (Enter /share/apps/g16/E6B-113X_avx2/g16/l103.exe)

 GradGradGradGradGradGradGradGradGradGradGradGradGradGradGradGradGradGrad
 Berny optimization.
 FormGI is forming the generalized inverse of G from B-inverse, IUseBI=4.
 Internal  Forces:  Max     0.025662929 RMS     0.011155585
 Search for a local minimum.
 Step number   1 out of a maximum of   25
 All quantities printed in internal units (Hartrees-Bohrs-Radians)
 RMS Force = .11156D-01 SwitMx=.10000D-02 MixMth= 1
 Mixed Optimization -- RFO/linear search
 Second derivative matrix not updated -- first step.
 The second derivative matrix:
                          R1        R2        R3        R4        R5
           R1           0.37230
           R2           0.00000   0.37230
           R3           0.00000   0.00000   0.53930
           R4           0.00000   0.00000   0.00000   0.37230
           R5           0.00000   0.00000   0.00000   0.00000   0.37230
           A1           0.00000   0.00000   0.00000   0.00000   0.00000
           A2           0.00000   0.00000   0.00000   0.00000   0.00000
           A3           0.00000   0.00000   0.00000   0.00000   0.00000
           A4           0.00000   0.00000   0.00000   0.00000   0.00000
           A5           0.00000   0.00000   0.00000   0.00000   0.00000
           A6           0.00000   0.00000   0.00000   0.00000   0.00000
           D1           0.00000   0.00000   0.00000   0.00000   0.00000
           D2           0.00000   0.00000   0.00000   0.00000   0.00000
           D3           0.00000   0.00000   0.00000   0.00000   0.00000
           D4           0.00000   0.00000   0.00000   0.00000   0.00000
                          A1        A2        A3        A4        A5
           A1           0.16000
           A2           0.00000   0.16000
           A3           0.00000   0.00000   0.16000
           A4           0.00000   0.00000   0.00000   0.16000
           A5           0.00000   0.00000   0.00000   0.00000   0.16000
           A6           0.00000   0.00000   0.00000   0.00000   0.00000
           D1           0.00000   0.00000   0.00000   0.00000   0.00000
           D2           0.00000   0.00000   0.00000   0.00000   0.00000
           D3           0.00000   0.00000   0.00000   0.00000   0.00000
           D4           0.00000   0.00000   0.00000   0.00000   0.00000
                          A6        D1        D2        D3        D4
           A6           0.16000
           D1           0.00000   0.02681
           D2           0.00000   0.00000   0.02681
           D3           0.00000   0.00000   0.00000   0.02681
           D4           0.00000   0.00000   0.00000   0.00000   0.02681
 ITU=  0
     Eigenvalues ---    0.02681   0.02681   0.02681   0.16000   0.16000
     Eigenvalues ---    0.16000   0.16000   0.37230   0.37230   0.37230
     Eigenvalues ---    0.37230   0.53930
 RFO step:  Lambda=-4.64909227D-03 EMin= 2.68137388D-02
 Linear search not attempted -- first point.
 Iteration  1 RMS(Cart)=  0.01965305 RMS(Int)=  0.00030001
 Iteration  2 RMS(Cart)=  0.00035051 RMS(Int)=  0.00000006
 Iteration  3 RMS(Cart)=  0.00000006 RMS(Int)=  0.00000000
 ITry= 1 IFail=0 DXMaxC= 3.47D-02 DCOld= 1.00D+10 DXMaxT= 3.00D-01 DXLimC= 3.00D+00 Rises=F
 Variable       Old X    -DE/DX   Delta X   Delta X   Delta X     New X
                                 (Linear)    (Quad)   (Total)
    R1        2.02201   0.01682   0.00000   0.04463   0.04463   2.06663
    R2        2.02201   0.01694   0.00000   0.04494   0.04494   2.06695
    R3        2.56096  -0.02566   0.00000  -0.04718  -0.04718   2.51378
    R4        2.02201   0.01682   0.00000   0.04463   0.04463   2.06663
    R5        2.02201   0.01694   0.00000   0.04494   0.04494   2.06695
    A1        2.09241  -0.00474   0.00000  -0.02879  -0.02879   2.06362
    A2        2.09836   0.00193   0.00000   0.01169   0.01169   2.11005
    A3        2.09241   0.00282   0.00000   0.01710   0.01710   2.10951
    A4        2.09836   0.00193   0.00000   0.01169   0.01169   2.11005
    A5        2.09241   0.00282   0.00000   0.01710   0.01710   2.10951
    A6        2.09241  -0.00474   0.00000  -0.02879  -0.02879   2.06362
    D1        3.14159   0.00000   0.00000   0.00000   0.00000   3.14159
    D2        0.00000   0.00000   0.00000   0.00000   0.00000   0.00000
    D3        0.00000   0.00000   0.00000   0.00000   0.00000   0.00000
    D4        3.14159   0.00000   0.00000   0.00000   0.00000   3.14159
         Item               Value     Threshold  Converged?
 Maximum Force            0.025663     0.000450     NO 
 RMS     Force            0.011156     0.000300     NO 
 Maximum Displacement     0.034656     0.001800     NO 
 RMS     Displacement     0.019634     0.001200     NO 
 Predicted change in Energy=-2.354213D-03
 Lowest energy point so far.  Saving SCF results.
 GradGradGradGradGradGradGradGradGradGradGradGradGradGradGradGradGradGrad

 Leave Link  103 at Thu Jun  1 09:09:53 2023, MaxMem=  3145728000 cpu:               0.4 elap:               0.0
 (Enter /share/apps/g16/E6B-113X_avx2/g16/l202.exe)
                          Input orientation:                          
 ---------------------------------------------------------------------
 Center     Atomic      Atomic             Coordinates (Angstroms)
 Number     Number       Type             X           Y           Z
 ---------------------------------------------------------------------
      1          6           0        1.095445    1.783575    0.000000
      2          1           0        1.627746    0.828248    0.000000
      3          1           0        0.001795    1.766598    0.000000
      4          6           0        1.760097    2.935860    0.000000
      5          1           0        1.227797    3.891187    0.000000
      6          1           0        2.853747    2.952837    0.000000
 ---------------------------------------------------------------------
                    Distance matrix (angstroms):
                    1          2          3          4          5
     1  C    0.000000
     2  H    1.093615   0.000000
     3  H    1.093782   1.877289   0.000000
     4  C    1.330234   2.111763   2.111587   0.000000
     5  H    2.111763   3.088941   2.452949   1.093615   0.000000
     6  H    2.111587   2.452949   3.088818   1.093782   1.877289
                    6
     6  H    0.000000
 Symmetry turned off by external request.
 Stoichiometry    C2H4
 Framework group  C2H[SGH(C2H4)]
 Deg. of freedom     5
 Full point group                 C2H     NOp   4
 Rotational constants (GHZ):         142.2884551          30.2963670          24.9779975
 Leave Link  202 at Thu Jun  1 09:09:53 2023, MaxMem=  3145728000 cpu:               0.4 elap:               0.0
 (Enter /share/apps/g16/E6B-113X_avx2/g16/l301.exe)
 Standard basis: def2SVP (5D, 7F)
 Ernie: Thresh=  0.10000D-02 Tol=  0.10000D-05 Strict=F.
    48 basis functions,    78 primitive gaussians,    50 cartesian basis functions
     8 alpha electrons        8 beta electrons
       nuclear repulsion energy        33.2854489610 Hartrees.
 IExCor= 4639 DFT=T Ex+Corr=wB97XD ExCW=0 ScaHFX=  1.000000
 ScaDFX=  1.000000  1.000000  1.000000  1.000000 ScalE2=  1.000000  1.000000
 IRadAn=      5 IRanWt=     -1 IRanGd=            0 ICorTp=0 IEmpDi=121
 HFx  wShort=  0.000000 wLong=  0.200000 cFull=  0.222036 cShort=  0.000000 cLong=  0.777964
 DFx  wShort=  0.000000 wLong=  0.200000 cFull=  0.000000 cShort=  0.000000 cLong=  1.000000
 NAtoms=    6 NActive=    6 NUniq=    6 SFac= 1.00D+00 NAtFMM=   60 NAOKFM=F Big=F
 Integral buffers will be    131072 words long.
 Raffenetti 2 integral format.
 Two-electron integral symmetry is turned off.
 R6Disp:  Grimme-D2 Dispersion energy=       -0.0008490496 Hartrees.
 Nuclear repulsion after empirical dispersion term =       33.2845999114 Hartrees.
 Leave Link  301 at Thu Jun  1 09:09:53 2023, MaxMem=  3145728000 cpu:               0.5 elap:               0.0
 (Enter /share/apps/g16/E6B-113X_avx2/g16/l302.exe)
 NPDir=0 NMtPBC=     1 NCelOv=     1 NCel=       1 NClECP=     1 NCelD=      1
         NCelK=      1 NCelE2=     1 NClLst=     1 CellRange=     0.0.
 One-electron integrals computed using PRISM.
   1 Symmetry operations used in ECPInt.
 ECPInt:  NShTT=     300 NPrTT=    1028 LenC2=     301 LenP2D=     971.
 LDataN:  DoStor=T MaxTD1= 4 Len=   56
 NBasis=    48 RedAO= T EigKep=  3.90D-03  NBF=    48
 NBsUse=    48 1.00D-06 EigRej= -1.00D+00 NBFU=    48
 Precomputing XC quadrature grid using
 IXCGrd= 4 IRadAn=           5 IRanWt=          -1 IRanGd=           0 AccXCQ= 0.00D+00.
 Generated NRdTot=       0 NPtTot=           0 NUsed=           0 NTot=          32
 NSgBfM=    50    50    50    50    50 MxSgAt=     6 MxSgA2=     6.
 Leave Link  302 at Thu Jun  1 09:09:53 2023, MaxMem=  3145728000 cpu:               2.7 elap:               0.1
 (Enter /share/apps/g16/E6B-113X_avx2/g16/l303.exe)
 DipDrv:  MaxL=1.
 Leave Link  303 at Thu Jun  1 09:09:53 2023, MaxMem=  3145728000 cpu:               0.4 elap:               0.0
 (Enter /share/apps/g16/E6B-113X_avx2/g16/l401.exe)
 Initial guess from the checkpoint file:  "ethene.chk"
 B after Tr=    -0.002136    0.001293    0.000000
         Rot=    1.000000    0.000000    0.000000    0.000239 Ang=   0.03 deg.
 Guess basis will be translated and rotated to current coordinates.
 JPrj=2 DoOrth=T DoCkMO=T.
 Generating alternative initial guess.
 ExpMin= 1.22D-01 ExpMax= 1.24D+03 ExpMxC= 1.86D+02 IAcc=2 IRadAn=         4 AccDes= 0.00D+00
 Harris functional with IExCor= 4639 and IRadAn=       4 diagonalized for initial guess.
 HarFok:  IExCor= 4639 AccDes= 0.00D+00 IRadAn=         4 IDoV= 1 UseB2=F ITyADJ=14
 ICtDFT=  3500011 ScaDFX=  1.000000  1.000000  1.000000  1.000000
 FoFCou: FMM=F IPFlag=           0 FMFlag=      100000 FMFlg1=           0
         NFxFlg=           0 DoJE=T BraDBF=F KetDBF=T FulRan=T
         wScrn=  0.000000 ICntrl=       500 IOpCl=  0 I1Cent=   200000004 NGrid=           0
         NMat0=    1 NMatS0=      1 NMatT0=    0 NMatD0=    1 NMtDS0=    0 NMtDT0=    0
 Symmetry not used in FoFCou.
 Harris En= -74.6079458393659    
 Leave Link  401 at Thu Jun  1 09:09:53 2023, MaxMem=  3145728000 cpu:               3.7 elap:               0.2
 (Enter /share/apps/g16/E6B-113X_avx2/g16/l502.exe)
 Keep R1 ints in memory in canonical form, NReq=22299564.
 FoFCou: FMM=F IPFlag=           0 FMFlag=           0 FMFlg1=           0
         NFxFlg=           0 DoJE=F BraDBF=F KetDBF=F FulRan=T
         wScrn=  0.000000 ICntrl=       600 IOpCl=  0 I1Cent=           0 NGrid=           0
         NMat0=    1 NMatS0=   1176 NMatT0=    0 NMatD0=    1 NMtDS0=    0 NMtDT0=    0
 Symmetry not used in FoFCou.
 Two-electron integral symmetry not used.
 Closed shell SCF:
 Using DIIS extrapolation, IDIIS=  1040.
 NGot=  3145728000 LenX=  3144337052 LenY=  3144334111
 Requested convergence on RMS density matrix=1.00D-08 within 128 cycles.
 Requested convergence on MAX density matrix=1.00D-06.
 Requested convergence on             energy=1.00D-06.
 No special actions if energy rises.
 Integral accuracy reduced to 1.0D-05 until final iterations.

 Cycle   1  Pass 0  IDiag  1:
 E= -78.5004300653486    
 DIIS: error= 2.72D-03 at cycle   1 NSaved=   1.
 NSaved= 1 IEnMin= 1 EnMin= -78.5004300653486     IErMin= 1 ErrMin= 2.72D-03
 ErrMax= 2.72D-03  0.00D+00 EMaxC= 1.00D-01 BMatC= 3.50D-04 BMatP= 3.50D-04
 IDIUse=3 WtCom= 9.73D-01 WtEn= 2.72D-02
 Coeff-Com:  0.100D+01
 Coeff-En:   0.100D+01
 Coeff:      0.100D+01
 Gap=     0.771 Goal=   None    Shift=    0.000
 GapD=    0.771 DampG=2.000 DampE=1.000 DampFc=2.0000 IDamp=-1.
 RMSDP=5.92D-04 MaxDP=4.01D-03              OVMax= 7.10D-03

 Cycle   2  Pass 0  IDiag  1:
 E= -78.5009125980871     Delta-E=       -0.000482532739 Rises=F Damp=F
 DIIS: error= 7.32D-04 at cycle   2 NSaved=   2.
 NSaved= 2 IEnMin= 2 EnMin= -78.5009125980871     IErMin= 2 ErrMin= 7.32D-04
 ErrMax= 7.32D-04  0.00D+00 EMaxC= 1.00D-01 BMatC= 1.36D-05 BMatP= 3.50D-04
 IDIUse=3 WtCom= 9.93D-01 WtEn= 7.32D-03
 Coeff-Com:  0.589D-02 0.994D+00
 Coeff-En:   0.000D+00 0.100D+01
 Coeff:      0.584D-02 0.994D+00
 Gap=     0.440 Goal=   None    Shift=    0.000
 RMSDP=9.67D-05 MaxDP=9.59D-04 DE=-4.83D-04 OVMax= 1.99D-03

 Cycle   3  Pass 0  IDiag  1:
 E= -78.5009304813892     Delta-E=       -0.000017883302 Rises=F Damp=F
 DIIS: error= 2.93D-04 at cycle   3 NSaved=   3.
 NSaved= 3 IEnMin= 3 EnMin= -78.5009304813892     IErMin= 3 ErrMin= 2.93D-04
 ErrMax= 2.93D-04  0.00D+00 EMaxC= 1.00D-01 BMatC= 1.32D-06 BMatP= 1.36D-05
 IDIUse=3 WtCom= 9.97D-01 WtEn= 2.93D-03
 Coeff-Com: -0.330D-01 0.121D+00 0.912D+00
 Coeff-En:   0.000D+00 0.000D+00 0.100D+01
 Coeff:     -0.329D-01 0.121D+00 0.912D+00
 Gap=     0.440 Goal=   None    Shift=    0.000
 RMSDP=3.10D-05 MaxDP=3.65D-04 DE=-1.79D-05 OVMax= 6.66D-04

 Cycle   4  Pass 0  IDiag  1:
 E= -78.5009321587488     Delta-E=       -0.000001677360 Rises=F Damp=F
 DIIS: error= 8.34D-05 at cycle   4 NSaved=   4.
 NSaved= 4 IEnMin= 4 EnMin= -78.5009321587488     IErMin= 4 ErrMin= 8.34D-05
 ErrMax= 8.34D-05  0.00D+00 EMaxC= 1.00D-01 BMatC= 1.82D-07 BMatP= 1.32D-06
 IDIUse=1 WtCom= 1.00D+00 WtEn= 0.00D+00
 Coeff-Com: -0.641D-02-0.309D-01 0.258D+00 0.779D+00
 Coeff:     -0.641D-02-0.309D-01 0.258D+00 0.779D+00
 Gap=     0.440 Goal=   None    Shift=    0.000
 RMSDP=1.03D-05 MaxDP=1.17D-04 DE=-1.68D-06 OVMax= 1.94D-04

 Cycle   5  Pass 0  IDiag  1:
 E= -78.5009323789273     Delta-E=       -0.000000220178 Rises=F Damp=F
 DIIS: error= 1.75D-05 at cycle   5 NSaved=   5.
 NSaved= 5 IEnMin= 5 EnMin= -78.5009323789273     IErMin= 5 ErrMin= 1.75D-05
 ErrMax= 1.75D-05  0.00D+00 EMaxC= 1.00D-01 BMatC= 2.58D-09 BMatP= 1.82D-07
 IDIUse=1 WtCom= 1.00D+00 WtEn= 0.00D+00
 Coeff-Com:  0.127D-02-0.909D-02-0.328D-01 0.454D-01 0.995D+00
 Coeff:      0.127D-02-0.909D-02-0.328D-01 0.454D-01 0.995D+00
 Gap=     0.440 Goal=   None    Shift=    0.000
 RMSDP=2.41D-06 MaxDP=2.14D-05 DE=-2.20D-07 OVMax= 3.70D-05

 Initial convergence to 1.0D-05 achieved.  Increase integral accuracy.
 Cycle   6  Pass 1  IDiag  1:
 E= -78.5009454282943     Delta-E=       -0.000013049367 Rises=F Damp=F
 DIIS: error= 2.82D-05 at cycle   1 NSaved=   1.
 NSaved= 1 IEnMin= 1 EnMin= -78.5009454282943     IErMin= 1 ErrMin= 2.82D-05
 ErrMax= 2.82D-05  0.00D+00 EMaxC= 1.00D-01 BMatC= 3.17D-08 BMatP= 3.17D-08
 IDIUse=1 WtCom= 1.00D+00 WtEn= 0.00D+00
 Coeff-Com:  0.100D+01
 Coeff:      0.100D+01
 Gap=     0.440 Goal=   None    Shift=    0.000
 RMSDP=2.41D-06 MaxDP=2.14D-05 DE=-1.30D-05 OVMax= 4.15D-05

 Cycle   7  Pass 1  IDiag  1:
 E= -78.5009454579417     Delta-E=       -0.000000029647 Rises=F Damp=F
 DIIS: error= 4.26D-06 at cycle   2 NSaved=   2.
 NSaved= 2 IEnMin= 2 EnMin= -78.5009454579417     IErMin= 2 ErrMin= 4.26D-06
 ErrMax= 4.26D-06  0.00D+00 EMaxC= 1.00D-01 BMatC= 5.04D-10 BMatP= 3.17D-08
 IDIUse=1 WtCom= 1.00D+00 WtEn= 0.00D+00
 Coeff-Com: -0.902D-01 0.109D+01
 Coeff:     -0.902D-01 0.109D+01
 Gap=     0.440 Goal=   None    Shift=    0.000
 RMSDP=5.98D-07 MaxDP=7.67D-06 DE=-2.96D-08 OVMax= 1.06D-05

 Cycle   8  Pass 1  IDiag  1:
 E= -78.5009454586273     Delta-E=       -0.000000000686 Rises=F Damp=F
 DIIS: error= 1.06D-06 at cycle   3 NSaved=   3.
 NSaved= 3 IEnMin= 3 EnMin= -78.5009454586273     IErMin= 3 ErrMin= 1.06D-06
 ErrMax= 1.06D-06  0.00D+00 EMaxC= 1.00D-01 BMatC= 3.72D-11 BMatP= 5.04D-10
 IDIUse=1 WtCom= 1.00D+00 WtEn= 0.00D+00
 Coeff-Com: -0.256D-01 0.201D+00 0.825D+00
 Coeff:     -0.256D-01 0.201D+00 0.825D+00
 Gap=     0.440 Goal=   None    Shift=    0.000
 RMSDP=1.59D-07 MaxDP=1.68D-06 DE=-6.86D-10 OVMax= 2.59D-06

 Cycle   9  Pass 1  IDiag  1:
 E= -78.5009454586683     Delta-E=       -0.000000000041 Rises=F Damp=F
 DIIS: error= 3.92D-07 at cycle   4 NSaved=   4.
 NSaved= 4 IEnMin= 4 EnMin= -78.5009454586683     IErMin= 4 ErrMin= 3.92D-07
 ErrMax= 3.92D-07  0.00D+00 EMaxC= 1.00D-01 BMatC= 4.28D-12 BMatP= 3.72D-11
 IDIUse=1 WtCom= 1.00D+00 WtEn= 0.00D+00
 Coeff-Com:  0.198D-02-0.469D-01 0.191D+00 0.854D+00
 Coeff:      0.198D-02-0.469D-01 0.191D+00 0.854D+00
 Gap=     0.440 Goal=   None    Shift=    0.000
 RMSDP=5.11D-08 MaxDP=7.02D-07 DE=-4.10D-11 OVMax= 7.95D-07

 Cycle  10  Pass 1  IDiag  1:
 E= -78.5009454586737     Delta-E=       -0.000000000005 Rises=F Damp=F
 DIIS: error= 4.73D-08 at cycle   5 NSaved=   5.
 NSaved= 5 IEnMin= 5 EnMin= -78.5009454586737     IErMin= 5 ErrMin= 4.73D-08
 ErrMax= 4.73D-08  0.00D+00 EMaxC= 1.00D-01 BMatC= 7.39D-14 BMatP= 4.28D-12
 IDIUse=1 WtCom= 1.00D+00 WtEn= 0.00D+00
 Coeff-Com:  0.132D-02-0.131D-01-0.212D-01 0.814D-01 0.952D+00
 Coeff:      0.132D-02-0.131D-01-0.212D-01 0.814D-01 0.952D+00
 Gap=     0.440 Goal=   None    Shift=    0.000
 RMSDP=1.13D-08 MaxDP=8.58D-08 DE=-5.37D-12 OVMax= 1.75D-07

 Cycle  11  Pass 1  IDiag  1:
 E= -78.5009454586738     Delta-E=        0.000000000000 Rises=F Damp=F
 DIIS: error= 4.77D-09 at cycle   6 NSaved=   6.
 NSaved= 6 IEnMin= 6 EnMin= -78.5009454586738     IErMin= 6 ErrMin= 4.77D-09
 ErrMax= 4.77D-09  0.00D+00 EMaxC= 1.00D-01 BMatC= 6.38D-16 BMatP= 7.39D-14
 IDIUse=1 WtCom= 1.00D+00 WtEn= 0.00D+00
 Coeff-Com: -0.797D-04 0.126D-02-0.206D-02-0.192D-01-0.665D-01 0.109D+01
 Coeff:     -0.797D-04 0.126D-02-0.206D-02-0.192D-01-0.665D-01 0.109D+01
 Gap=     0.440 Goal=   None    Shift=    0.000
 RMSDP=2.29D-09 MaxDP=1.23D-08 DE=-1.28D-13 OVMax= 2.52D-08

 SCF Done:  E(RwB97XD) =  -78.5009454587     A.U. after   11 cycles
            NFock= 11  Conv=0.23D-08     -V/T= 2.0131
 KE= 7.748578528770D+01 PE=-2.475348499408D+02 EE= 5.826351928310D+01
 Leave Link  502 at Thu Jun  1 09:09:54 2023, MaxMem=  3145728000 cpu:              14.0 elap:               0.6
 (Enter /share/apps/g16/E6B-113X_avx2/g16/l701.exe)
 ... and contract with generalized density number  0.
 Compute integral first derivatives.
 R6Disp: Adding Grimme-D2 dispersion energy 1st derivatives to the gradient.
   1 Symmetry operations used in ECPInt.
 ECPInt:  NShTT=     300 NPrTT=    1028 LenC2=     301 LenP2D=     971.
 LDataN:  DoStor=T MaxTD1= 5 Len=  102
 Leave Link  701 at Thu Jun  1 09:09:54 2023, MaxMem=  3145728000 cpu:               1.9 elap:               0.1
 (Enter /share/apps/g16/E6B-113X_avx2/g16/l702.exe)
 L702 exits ... SP integral derivatives will be done elsewhere.
 Leave Link  702 at Thu Jun  1 09:09:54 2023, MaxMem=  3145728000 cpu:               0.3 elap:               0.0
 (Enter /share/apps/g16/E6B-113X_avx2/g16/l703.exe)
 Integral derivatives from FoFJK, PRISM(SPDF).
 Compute integral first derivatives, UseDBF=F ICtDFT=           0.
 Calling FoFJK, ICntrl=      2127 FMM=F ISym2X=0 I1Cent= 0 IOpClX= 0 NMat=1 NMatS=1 NMatT=0.
 FoFJK:  IHMeth= 1 ICntrl=    2127 DoSepK=T KAlg= 0 I1Cent=           0 FoldK=F
 IRaf=         1 NMat=       1 IRICut=       1 DoRegI=T DoRafI=F ISym2E= 0 IDoP0=0 IntGTp=1.
 FoFCou: FMM=F IPFlag=           0 FMFlag=      100000 FMFlg1=         800
         NFxFlg=           0 DoJE=F BraDBF=F KetDBF=F FulRan=T
         wScrn=  0.000000 ICntrl=      2527 IOpCl=  0 I1Cent=           0 NGrid=           0
         NMat0=    1 NMatS0=      1 NMatT0=    0 NMatD0=    1 NMtDS0=    0 NMtDT0=    0
 Symmetry not used in FoFCou.
 Leave Link  703 at Thu Jun  1 09:09:54 2023, MaxMem=  3145728000 cpu:               8.4 elap:               0.4
 (Enter /share/apps/g16/E6B-113X_avx2/g16/l716.exe)
 Dipole        =-1.35864653D-11 1.58728142D-10-1.84038502D-14
 -------------------------------------------------------------------
 Center     Atomic                   Forces (Hartrees/Bohr)
 Number     Number              X              Y              Z
 -------------------------------------------------------------------
      1        6           0.000975555    0.002023421    0.000000000
      2        1          -0.001899089   -0.000994644    0.000000000
      3        1           0.000193228   -0.002179120    0.000000000
      4        6          -0.000975555   -0.002023421    0.000000000
      5        1           0.001899089    0.000994644    0.000000000
      6        1          -0.000193229    0.002179120    0.000000000
 -------------------------------------------------------------------
 Cartesian Forces:  Max     0.002179120 RMS     0.001266127
 Leave Link  716 at Thu Jun  1 09:09:55 2023, MaxMem=  3145728000 cpu:               0.4 elap:               0.0
 (Enter /share/apps/g16/E6B-113X_avx2/g16/l103.exe)

 GradGradGradGradGradGradGradGradGradGradGradGradGradGradGradGradGradGrad
 Berny optimization.
 Using GEDIIS/GDIIS optimizer.
 FormGI is forming the generalized inverse of G from B-inverse, IUseBI=4.
 Internal  Forces:  Max     0.002979579 RMS     0.001379601
 Search for a local minimum.
 Step number   2 out of a maximum of   25
 All quantities printed in internal units (Hartrees-Bohrs-Radians)
 RMS Force = .13796D-02 SwitMx=.10000D-02 MixMth= 1
 Mixed Optimization -- RFO/linear search
 Update second derivatives using D2CorX and points    1    2
 DE= -2.39D-03 DEPred=-2.35D-03 R= 1.02D+00
 TightC=F SS=  1.41D+00  RLast= 1.13D-01 DXNew= 5.0454D-01 3.3894D-01
 Trust test= 1.02D+00 RLast= 1.13D-01 DXMaxT set to 3.39D-01
 The second derivative matrix:
                          R1        R2        R3        R4        R5
           R1           0.37582
           R2           0.00393   0.37665
           R3          -0.00983  -0.01051   0.56145
           R4           0.00352   0.00393  -0.00983   0.37582
           R5           0.00393   0.00435  -0.01051   0.00393   0.37665
           A1           0.01003   0.01006  -0.01490   0.01003   0.01006
           A2          -0.00499  -0.00501   0.00751  -0.00499  -0.00501
           A3          -0.00505  -0.00505   0.00739  -0.00505  -0.00505
           A4          -0.00499  -0.00501   0.00751  -0.00499  -0.00501
           A5          -0.00505  -0.00505   0.00739  -0.00505  -0.00505
           A6           0.01003   0.01006  -0.01490   0.01003   0.01006
           D1           0.00000   0.00000   0.00000   0.00000   0.00000
           D2           0.00000   0.00000   0.00000   0.00000   0.00000
           D3           0.00000   0.00000   0.00000   0.00000   0.00000
           D4           0.00000   0.00000   0.00000   0.00000   0.00000
                          A1        A2        A3        A4        A5
           A1           0.15607
           A2           0.00169   0.15929
           A3           0.00224  -0.00098   0.15874
           A4           0.00169  -0.00071  -0.00098   0.15929
           A5           0.00224  -0.00098  -0.00126  -0.00098   0.15874
           A6          -0.00393   0.00169   0.00224   0.00169   0.00224
           D1           0.00000   0.00000   0.00000   0.00000   0.00000
           D2           0.00000   0.00000   0.00000   0.00000   0.00000
           D3           0.00000   0.00000   0.00000   0.00000   0.00000
           D4           0.00000   0.00000   0.00000   0.00000   0.00000
                          A6        D1        D2        D3        D4
           A6           0.15607
           D1           0.00000   0.02681
           D2           0.00000   0.00000   0.02681
           D3           0.00000   0.00000   0.00000   0.02681
           D4           0.00000   0.00000   0.00000   0.00000   0.02681
 ITU=  1  0
 Use linear search instead of GDIIS.
     Eigenvalues ---    0.02681   0.02681   0.02681   0.14197   0.16000
     Eigenvalues ---    0.16000   0.16003   0.37228   0.37230   0.37230
     Eigenvalues ---    0.38975   0.56594
 RFO step:  Lambda=-1.76963216D-04 EMin= 2.68137388D-02
 Quartic linear search produced a step of  0.03999.
 Iteration  1 RMS(Cart)=  0.01113257 RMS(Int)=  0.00005610
 Iteration  2 RMS(Cart)=  0.00005626 RMS(Int)=  0.00000000
 Iteration  3 RMS(Cart)=  0.00000000 RMS(Int)=  0.00000000
 ITry= 1 IFail=0 DXMaxC= 2.16D-02 DCOld= 1.00D+10 DXMaxT= 3.39D-01 DXLimC= 3.00D+00 Rises=F
 Variable       Old X    -DE/DX   Delta X   Delta X   Delta X     New X
                                 (Linear)    (Quad)   (Total)
    R1        2.06663  -0.00006   0.00178  -0.00027   0.00151   2.06815
    R2        2.06695  -0.00016   0.00180  -0.00056   0.00124   2.06819
    R3        2.51378   0.00136  -0.00189   0.00275   0.00086   2.51464
    R4        2.06663  -0.00006   0.00178  -0.00027   0.00151   2.06815
    R5        2.06695  -0.00016   0.00180  -0.00056   0.00124   2.06819
    A1        2.06362  -0.00298  -0.00115  -0.01929  -0.02044   2.04318
    A2        2.11005   0.00145   0.00047   0.00940   0.00987   2.11992
    A3        2.10951   0.00153   0.00068   0.00989   0.01057   2.12008
    A4        2.11005   0.00145   0.00047   0.00940   0.00987   2.11992
    A5        2.10951   0.00153   0.00068   0.00989   0.01057   2.12008
    A6        2.06362  -0.00298  -0.00115  -0.01929  -0.02044   2.04318
    D1        3.14159   0.00000   0.00000   0.00000   0.00000   3.14159
    D2        0.00000   0.00000   0.00000   0.00000   0.00000   0.00000
    D3        0.00000   0.00000   0.00000   0.00000   0.00000   0.00000
    D4        3.14159   0.00000   0.00000   0.00000   0.00000   3.14159
         Item               Value     Threshold  Converged?
 Maximum Force            0.002980     0.000450     NO 
 RMS     Force            0.001380     0.000300     NO 
 Maximum Displacement     0.021639     0.001800     NO 
 RMS     Displacement     0.011136     0.001200     NO 
 Predicted change in Energy=-9.143598D-05
 Lowest energy point so far.  Saving SCF results.
 GradGradGradGradGradGradGradGradGradGradGradGradGradGradGradGradGradGrad

 Leave Link  103 at Thu Jun  1 09:09:55 2023, MaxMem=  3145728000 cpu:               0.3 elap:               0.0
 (Enter /share/apps/g16/E6B-113X_avx2/g16/l202.exe)
                          Input orientation:                          
 ---------------------------------------------------------------------
 Center     Atomic      Atomic             Coordinates (Angstroms)
 Number     Number       Type             X           Y           Z
 ---------------------------------------------------------------------
      1          6           0        1.095200    1.783452    0.000000
      2          1           0        1.618210    0.822095    0.000000
      3          1           0        0.001129    1.755147    0.000000
      4          6           0        1.760342    2.935983    0.000000
      5          1           0        1.237332    3.897340    0.000000
      6          1           0        2.854413    2.964289    0.000000
 ---------------------------------------------------------------------
                    Distance matrix (angstroms):
                    1          2          3          4          5
     1  C    0.000000
     2  H    1.094416   0.000000
     3  H    1.094438   1.866959   0.000000
     4  C    1.330692   2.118661   2.118774   0.000000
     5  H    2.118661   3.098742   2.473296   1.094416   0.000000
     6  H    2.118774   2.473296   3.098912   1.094438   1.866959
                    6
     6  H    0.000000
 Symmetry turned off by external request.
 Stoichiometry    C2H4
 Framework group  C2H[SGH(C2H4)]
 Deg. of freedom     5
 Full point group                 C2H     NOp   4
 Rotational constants (GHZ):         143.8673680          30.1008995          24.8926844
 Leave Link  202 at Thu Jun  1 09:09:55 2023, MaxMem=  3145728000 cpu:               0.2 elap:               0.0
 (Enter /share/apps/g16/E6B-113X_avx2/g16/l301.exe)
 Standard basis: def2SVP (5D, 7F)
 Ernie: Thresh=  0.10000D-02 Tol=  0.10000D-05 Strict=F.
    48 basis functions,    78 primitive gaussians,    50 cartesian basis functions
     8 alpha electrons        8 beta electrons
       nuclear repulsion energy        33.2512719762 Hartrees.
 IExCor= 4639 DFT=T Ex+Corr=wB97XD ExCW=0 ScaHFX=  1.000000
 ScaDFX=  1.000000  1.000000  1.000000  1.000000 ScalE2=  1.000000  1.000000
 IRadAn=      5 IRanWt=     -1 IRanGd=            0 ICorTp=0 IEmpDi=121
 HFx  wShort=  0.000000 wLong=  0.200000 cFull=  0.222036 cShort=  0.000000 cLong=  0.777964
 DFx  wShort=  0.000000 wLong=  0.200000 cFull=  0.000000 cShort=  0.000000 cLong=  1.000000
 NAtoms=    6 NActive=    6 NUniq=    6 SFac= 1.00D+00 NAtFMM=   60 NAOKFM=F Big=F
 Integral buffers will be    131072 words long.
 Raffenetti 2 integral format.
 Two-electron integral symmetry is turned off.
 R6Disp:  Grimme-D2 Dispersion energy=       -0.0008411190 Hartrees.
 Nuclear repulsion after empirical dispersion term =       33.2504308572 Hartrees.
 Leave Link  301 at Thu Jun  1 09:09:55 2023, MaxMem=  3145728000 cpu:               0.5 elap:               0.0
 (Enter /share/apps/g16/E6B-113X_avx2/g16/l302.exe)
 NPDir=0 NMtPBC=     1 NCelOv=     1 NCel=       1 NClECP=     1 NCelD=      1
         NCelK=      1 NCelE2=     1 NClLst=     1 CellRange=     0.0.
 One-electron integrals computed using PRISM.
   1 Symmetry operations used in ECPInt.
 ECPInt:  NShTT=     300 NPrTT=    1028 LenC2=     301 LenP2D=     971.
 LDataN:  DoStor=T MaxTD1= 4 Len=   56
 NBasis=    48 RedAO= T EigKep=  3.93D-03  NBF=    48
 NBsUse=    48 1.00D-06 EigRej= -1.00D+00 NBFU=    48
 Precomputing XC quadrature grid using
 IXCGrd= 4 IRadAn=           5 IRanWt=          -1 IRanGd=           0 AccXCQ= 0.00D+00.
 Generated NRdTot=       0 NPtTot=           0 NUsed=           0 NTot=          32
 NSgBfM=    50    50    50    50    50 MxSgAt=     6 MxSgA2=     6.
 Leave Link  302 at Thu Jun  1 09:09:55 2023, MaxMem=  3145728000 cpu:               2.9 elap:               0.1
 (Enter /share/apps/g16/E6B-113X_avx2/g16/l303.exe)
 DipDrv:  MaxL=1.
 Leave Link  303 at Thu Jun  1 09:09:55 2023, MaxMem=  3145728000 cpu:               0.4 elap:               0.0
 (Enter /share/apps/g16/E6B-113X_avx2/g16/l401.exe)
 Initial guess from the checkpoint file:  "ethene.chk"
 B after Tr=    -0.000300    0.000182    0.000000
         Rot=    1.000000    0.000000    0.000000    0.000034 Ang=   0.00 deg.
 Guess basis will be translated and rotated to current coordinates.
 JPrj=2 DoOrth=T DoCkMO=T.
 Generating alternative initial guess.
 ExpMin= 1.22D-01 ExpMax= 1.24D+03 ExpMxC= 1.86D+02 IAcc=2 IRadAn=         4 AccDes= 0.00D+00
 Harris functional with IExCor= 4639 and IRadAn=       4 diagonalized for initial guess.
 HarFok:  IExCor= 4639 AccDes= 0.00D+00 IRadAn=         4 IDoV= 1 UseB2=F ITyADJ=14
 ICtDFT=  3500011 ScaDFX=  1.000000  1.000000  1.000000  1.000000
 FoFCou: FMM=F IPFlag=           0 FMFlag=      100000 FMFlg1=           0
         NFxFlg=           0 DoJE=T BraDBF=F KetDBF=T FulRan=T
         wScrn=  0.000000 ICntrl=       500 IOpCl=  0 I1Cent=   200000004 NGrid=           0
         NMat0=    1 NMatS0=      1 NMatT0=    0 NMatD0=    1 NMtDS0=    0 NMtDT0=    0
 Symmetry not used in FoFCou.
 Harris En= -74.6081270609252    
 Leave Link  401 at Thu Jun  1 09:09:55 2023, MaxMem=  3145728000 cpu:               3.7 elap:               0.2
 (Enter /share/apps/g16/E6B-113X_avx2/g16/l502.exe)
 Keep R1 ints in memory in canonical form, NReq=22299564.
 FoFCou: FMM=F IPFlag=           0 FMFlag=           0 FMFlg1=           0
         NFxFlg=           0 DoJE=F BraDBF=F KetDBF=F FulRan=T
         wScrn=  0.000000 ICntrl=       600 IOpCl=  0 I1Cent=           0 NGrid=           0
         NMat0=    1 NMatS0=   1176 NMatT0=    0 NMatD0=    1 NMtDS0=    0 NMtDT0=    0
 Symmetry not used in FoFCou.
 Two-electron integral symmetry not used.
 Closed shell SCF:
 Using DIIS extrapolation, IDIIS=  1040.
 NGot=  3145728000 LenX=  3144337052 LenY=  3144334111
 Requested convergence on RMS density matrix=1.00D-08 within 128 cycles.
 Requested convergence on MAX density matrix=1.00D-06.
 Requested convergence on             energy=1.00D-06.
 No special actions if energy rises.
 Integral accuracy reduced to 1.0D-05 until final iterations.

 Cycle   1  Pass 0  IDiag  1:
 E= -78.5010343285693    
 DIIS: error= 5.87D-04 at cycle   1 NSaved=   1.
 NSaved= 1 IEnMin= 1 EnMin= -78.5010343285693     IErMin= 1 ErrMin= 5.87D-04
 ErrMax= 5.87D-04  0.00D+00 EMaxC= 1.00D-01 BMatC= 1.11D-05 BMatP= 1.11D-05
 IDIUse=3 WtCom= 9.94D-01 WtEn= 5.87D-03
 Coeff-Com:  0.100D+01
 Coeff-En:   0.100D+01
 Coeff:      0.100D+01
 Gap=     0.772 Goal=   None    Shift=    0.000
 RMSDP=9.71D-05 MaxDP=7.54D-04              OVMax= 1.11D-03

 Cycle   2  Pass 0  IDiag  1:
 E= -78.5010467103503     Delta-E=       -0.000012381781 Rises=F Damp=F
 DIIS: error= 8.37D-05 at cycle   2 NSaved=   2.
 NSaved= 2 IEnMin= 2 EnMin= -78.5010467103503     IErMin= 2 ErrMin= 8.37D-05
 ErrMax= 8.37D-05  0.00D+00 EMaxC= 1.00D-01 BMatC= 2.10D-07 BMatP= 1.11D-05
 IDIUse=1 WtCom= 1.00D+00 WtEn= 0.00D+00
 Coeff-Com: -0.989D-01 0.110D+01
 Coeff:     -0.989D-01 0.110D+01
 Gap=     0.440 Goal=   None    Shift=    0.000
 RMSDP=1.68D-05 MaxDP=1.29D-04 DE=-1.24D-05 OVMax= 2.85D-04

 Cycle   3  Pass 0  IDiag  1:
 E= -78.5010470978441     Delta-E=       -0.000000387494 Rises=F Damp=F
 DIIS: error= 2.73D-05 at cycle   3 NSaved=   3.
 NSaved= 3 IEnMin= 3 EnMin= -78.5010470978441     IErMin= 3 ErrMin= 2.73D-05
 ErrMax= 2.73D-05  0.00D+00 EMaxC= 1.00D-01 BMatC= 1.74D-08 BMatP= 2.10D-07
 IDIUse=1 WtCom= 1.00D+00 WtEn= 0.00D+00
 Coeff-Com: -0.260D-01 0.177D+00 0.849D+00
 Coeff:     -0.260D-01 0.177D+00 0.849D+00
 Gap=     0.440 Goal=   None    Shift=    0.000
 RMSDP=3.80D-06 MaxDP=4.18D-05 DE=-3.87D-07 OVMax= 6.96D-05

 Initial convergence to 1.0D-05 achieved.  Increase integral accuracy.
 Cycle   4  Pass 1  IDiag  1:
 E= -78.5010573720213     Delta-E=       -0.000010274177 Rises=F Damp=F
 DIIS: error= 2.68D-05 at cycle   1 NSaved=   1.
 NSaved= 1 IEnMin= 1 EnMin= -78.5010573720213     IErMin= 1 ErrMin= 2.68D-05
 ErrMax= 2.68D-05  0.00D+00 EMaxC= 1.00D-01 BMatC= 3.12D-08 BMatP= 3.12D-08
 IDIUse=1 WtCom= 1.00D+00 WtEn= 0.00D+00
 Coeff-Com:  0.100D+01
 Coeff:      0.100D+01
 Gap=     0.440 Goal=   None    Shift=    0.000
 RMSDP=3.80D-06 MaxDP=4.18D-05 DE=-1.03D-05 OVMax= 4.52D-05

 Cycle   5  Pass 1  IDiag  1:
 E= -78.5010574010896     Delta-E=       -0.000000029068 Rises=F Damp=F
 DIIS: error= 5.78D-06 at cycle   2 NSaved=   2.
 NSaved= 2 IEnMin= 2 EnMin= -78.5010574010896     IErMin= 2 ErrMin= 5.78D-06
 ErrMax= 5.78D-06  0.00D+00 EMaxC= 1.00D-01 BMatC= 1.05D-09 BMatP= 3.12D-08
 IDIUse=1 WtCom= 1.00D+00 WtEn= 0.00D+00
 Coeff-Com: -0.299D-01 0.103D+01
 Coeff:     -0.299D-01 0.103D+01
 Gap=     0.440 Goal=   None    Shift=    0.000
 RMSDP=1.07D-06 MaxDP=1.10D-05 DE=-2.91D-08 OVMax= 1.48D-05

 Cycle   6  Pass 1  IDiag  1:
 E= -78.5010574020687     Delta-E=       -0.000000000979 Rises=F Damp=F
 DIIS: error= 3.26D-06 at cycle   3 NSaved=   3.
 NSaved= 3 IEnMin= 3 EnMin= -78.5010574020687     IErMin= 3 ErrMin= 3.26D-06
 ErrMax= 3.26D-06  0.00D+00 EMaxC= 1.00D-01 BMatC= 3.52D-10 BMatP= 1.05D-09
 IDIUse=1 WtCom= 1.00D+00 WtEn= 0.00D+00
 Coeff-Com: -0.433D-01 0.375D+00 0.668D+00
 Coeff:     -0.433D-01 0.375D+00 0.668D+00
 Gap=     0.440 Goal=   None    Shift=    0.000
 RMSDP=3.34D-07 MaxDP=4.79D-06 DE=-9.79D-10 OVMax= 5.62D-06

 Cycle   7  Pass 1  IDiag  1:
 E= -78.5010574024531     Delta-E=       -0.000000000384 Rises=F Damp=F
 DIIS: error= 2.52D-07 at cycle   4 NSaved=   4.
 NSaved= 4 IEnMin= 4 EnMin= -78.5010574024531     IErMin= 4 ErrMin= 2.52D-07
 ErrMax= 2.52D-07  0.00D+00 EMaxC= 1.00D-01 BMatC= 1.96D-12 BMatP= 3.52D-10
 IDIUse=1 WtCom= 1.00D+00 WtEn= 0.00D+00
 Coeff-Com:  0.136D-02-0.419D-01-0.212D-01 0.106D+01
 Coeff:      0.136D-02-0.419D-01-0.212D-01 0.106D+01
 Gap=     0.440 Goal=   None    Shift=    0.000
 RMSDP=6.12D-08 MaxDP=3.54D-07 DE=-3.84D-10 OVMax= 9.72D-07

 Cycle   8  Pass 1  IDiag  1:
 E= -78.5010574024569     Delta-E=       -0.000000000004 Rises=F Damp=F
 DIIS: error= 3.88D-08 at cycle   5 NSaved=   5.
 NSaved= 5 IEnMin= 5 EnMin= -78.5010574024569     IErMin= 5 ErrMin= 3.88D-08
 ErrMax= 3.88D-08  0.00D+00 EMaxC= 1.00D-01 BMatC= 5.22D-14 BMatP= 1.96D-12
 IDIUse=1 WtCom= 1.00D+00 WtEn= 0.00D+00
 Coeff-Com:  0.124D-02-0.118D-01-0.188D-01 0.384D-01 0.991D+00
 Coeff:      0.124D-02-0.118D-01-0.188D-01 0.384D-01 0.991D+00
 Gap=     0.440 Goal=   None    Shift=    0.000
 RMSDP=1.13D-08 MaxDP=7.24D-08 DE=-3.78D-12 OVMax= 1.68D-07

 Cycle   9  Pass 1  IDiag  1:
 E= -78.5010574024570     Delta-E=        0.000000000000 Rises=F Damp=F
 DIIS: error= 4.99D-09 at cycle   6 NSaved=   6.
 NSaved= 6 IEnMin= 6 EnMin= -78.5010574024570     IErMin= 6 ErrMin= 4.99D-09
 ErrMax= 4.99D-09  0.00D+00 EMaxC= 1.00D-01 BMatC= 6.75D-16 BMatP= 5.22D-14
 IDIUse=1 WtCom= 1.00D+00 WtEn= 0.00D+00
 Coeff-Com: -0.821D-04 0.128D-02 0.126D-02-0.194D-01-0.778D-01 0.109D+01
 Coeff:     -0.821D-04 0.128D-02 0.126D-02-0.194D-01-0.778D-01 0.109D+01
 Gap=     0.440 Goal=   None    Shift=    0.000
 RMSDP=2.35D-09 MaxDP=1.51D-08 DE=-5.68D-14 OVMax= 2.80D-08

 SCF Done:  E(RwB97XD) =  -78.5010574025     A.U. after    9 cycles
            NFock=  9  Conv=0.23D-08     -V/T= 2.0132
 KE= 7.747851152575D+01 PE=-2.474585365143D+02 EE= 5.822853672888D+01
 Leave Link  502 at Thu Jun  1 09:09:56 2023, MaxMem=  3145728000 cpu:              13.3 elap:               0.6
 (Enter /share/apps/g16/E6B-113X_avx2/g16/l701.exe)
 ... and contract with generalized density number  0.
 Compute integral first derivatives.
 R6Disp: Adding Grimme-D2 dispersion energy 1st derivatives to the gradient.
   1 Symmetry operations used in ECPInt.
 ECPInt:  NShTT=     300 NPrTT=    1028 LenC2=     301 LenP2D=     971.
 LDataN:  DoStor=T MaxTD1= 5 Len=  102
 Leave Link  701 at Thu Jun  1 09:09:56 2023, MaxMem=  3145728000 cpu:               1.9 elap:               0.1
 (Enter /share/apps/g16/E6B-113X_avx2/g16/l702.exe)
 L702 exits ... SP integral derivatives will be done elsewhere.
 Leave Link  702 at Thu Jun  1 09:09:56 2023, MaxMem=  3145728000 cpu:               0.3 elap:               0.0
 (Enter /share/apps/g16/E6B-113X_avx2/g16/l703.exe)
 Integral derivatives from FoFJK, PRISM(SPDF).
 Compute integral first derivatives, UseDBF=F ICtDFT=           0.
 Calling FoFJK, ICntrl=      2127 FMM=F ISym2X=0 I1Cent= 0 IOpClX= 0 NMat=1 NMatS=1 NMatT=0.
 FoFJK:  IHMeth= 1 ICntrl=    2127 DoSepK=T KAlg= 0 I1Cent=           0 FoldK=F
 IRaf=         1 NMat=       1 IRICut=       1 DoRegI=T DoRafI=F ISym2E= 0 IDoP0=0 IntGTp=1.
 FoFCou: FMM=F IPFlag=           0 FMFlag=      100000 FMFlg1=         800
         NFxFlg=           0 DoJE=F BraDBF=F KetDBF=F FulRan=T
         wScrn=  0.000000 ICntrl=      2527 IOpCl=  0 I1Cent=           0 NGrid=           0
         NMat0=    1 NMatS0=      1 NMatT0=    0 NMatD0=    1 NMtDS0=    0 NMtDT0=    0
 Symmetry not used in FoFCou.
 Leave Link  703 at Thu Jun  1 09:09:56 2023, MaxMem=  3145728000 cpu:               8.4 elap:               0.4
 (Enter /share/apps/g16/E6B-113X_avx2/g16/l716.exe)
 Dipole        =-2.44834375D-10-3.49212215D-10 2.00528845D-12
 -------------------------------------------------------------------
 Center     Atomic                   Forces (Hartrees/Bohr)
 Number     Number              X              Y              Z
 -------------------------------------------------------------------
      1        6           0.000455385    0.000779025    0.000000000
      2        1          -0.000668133    0.000146223    0.000000000
      3        1           0.000480965   -0.000497435    0.000000000
      4        6          -0.000455385   -0.000779025    0.000000000
      5        1           0.000668133   -0.000146223    0.000000000
      6        1          -0.000480965    0.000497435    0.000000000
 -------------------------------------------------------------------
 Cartesian Forces:  Max     0.000779025 RMS     0.000442318
 Leave Link  716 at Thu Jun  1 09:09:56 2023, MaxMem=  3145728000 cpu:               0.4 elap:               0.0
 (Enter /share/apps/g16/E6B-113X_avx2/g16/l103.exe)

 GradGradGradGradGradGradGradGradGradGradGradGradGradGradGradGradGradGrad
 Berny optimization.
 Using GEDIIS/GDIIS optimizer.
 FormGI is forming the generalized inverse of G from B-inverse, IUseBI=4.
 Internal  Forces:  Max     0.000707817 RMS     0.000416083
 Search for a local minimum.
 Step number   3 out of a maximum of   25
 All quantities printed in internal units (Hartrees-Bohrs-Radians)
 RMS Force = .41608D-03 SwitMx=.10000D-02 MixMth= 2
 Mixed Optimization -- En-DIIS/RFO-DIIS
 Update second derivatives using D2CorX and points    1    2    3
 DE= -1.12D-04 DEPred=-9.14D-05 R= 1.22D+00
 TightC=F SS=  1.41D+00  RLast= 3.55D-02 DXNew= 5.7003D-01 1.0659D-01
 Trust test= 1.22D+00 RLast= 3.55D-02 DXMaxT set to 3.39D-01
 The second derivative matrix:
                          R1        R2        R3        R4        R5
           R1           0.38030
           R2           0.00818   0.38066
           R3          -0.00474  -0.00571   0.56791
           R4           0.00800   0.00818  -0.00474   0.38030
           R5           0.00818   0.00836  -0.00571   0.00818   0.38066
           A1           0.00346   0.00316  -0.02288   0.00346   0.00316
           A2          -0.00195  -0.00180   0.01121  -0.00195  -0.00180
           A3          -0.00152  -0.00136   0.01166  -0.00152  -0.00136
           A4          -0.00195  -0.00180   0.01121  -0.00195  -0.00180
           A5          -0.00152  -0.00136   0.01166  -0.00152  -0.00136
           A6           0.00346   0.00316  -0.02288   0.00346   0.00316
           D1           0.00000   0.00000   0.00000   0.00000   0.00000
           D2           0.00000   0.00000   0.00000   0.00000   0.00000
           D3           0.00000   0.00000   0.00000   0.00000   0.00000
           D4           0.00000   0.00000   0.00000   0.00000   0.00000
                          A1        A2        A3        A4        A5
           A1           0.14369
           A2           0.00800   0.15608
           A3           0.00831  -0.00408   0.15578
           A4           0.00800  -0.00392  -0.00408   0.15608
           A5           0.00831  -0.00408  -0.00422  -0.00408   0.15578
           A6          -0.01631   0.00800   0.00831   0.00800   0.00831
           D1           0.00000   0.00000   0.00000   0.00000   0.00000
           D2           0.00000   0.00000   0.00000   0.00000   0.00000
           D3           0.00000   0.00000   0.00000   0.00000   0.00000
           D4           0.00000   0.00000   0.00000   0.00000   0.00000
                          A6        D1        D2        D3        D4
           A6           0.14369
           D1           0.00000   0.02681
           D2           0.00000   0.00000   0.02681
           D3           0.00000   0.00000   0.00000   0.02681
           D4           0.00000   0.00000   0.00000   0.00000   0.02681
 ITU=  1  1  0
 Use linear search instead of GDIIS.
     Eigenvalues ---    0.02681   0.02681   0.02681   0.10728   0.16000
     Eigenvalues ---    0.16000   0.16003   0.37229   0.37230   0.37230
     Eigenvalues ---    0.40463   0.57211
 RFO step:  Lambda=-5.27666623D-06 EMin= 2.68137388D-02
 Quartic linear search produced a step of  0.28243.
 Iteration  1 RMS(Cart)=  0.00324642 RMS(Int)=  0.00000597
 Iteration  2 RMS(Cart)=  0.00000605 RMS(Int)=  0.00000000
 Iteration  3 RMS(Cart)=  0.00000000 RMS(Int)=  0.00000000
 ITry= 1 IFail=0 DXMaxC= 6.04D-03 DCOld= 1.00D+10 DXMaxT= 3.39D-01 DXLimC= 3.00D+00 Rises=F
 Variable       Old X    -DE/DX   Delta X   Delta X   Delta X     New X
                                 (Linear)    (Quad)   (Total)
    R1        2.06815  -0.00045   0.00043  -0.00138  -0.00096   2.06719
    R2        2.06819  -0.00047   0.00035  -0.00138  -0.00103   2.06716
    R3        2.51464  -0.00050   0.00024  -0.00197  -0.00172   2.51292
    R4        2.06815  -0.00045   0.00043  -0.00138  -0.00096   2.06719
    R5        2.06819  -0.00047   0.00035  -0.00138  -0.00103   2.06716
    A1        2.04318  -0.00071  -0.00577  -0.00083  -0.00660   2.03658
    A2        2.11992   0.00036   0.00279   0.00055   0.00334   2.12326
    A3        2.12008   0.00034   0.00299   0.00028   0.00326   2.12335
    A4        2.11992   0.00036   0.00279   0.00055   0.00334   2.12326
    A5        2.12008   0.00034   0.00299   0.00028   0.00326   2.12335
    A6        2.04318  -0.00071  -0.00577  -0.00083  -0.00660   2.03658
    D1        3.14159   0.00000   0.00000   0.00000   0.00000   3.14159
    D2        0.00000   0.00000   0.00000   0.00000   0.00000   0.00000
    D3        0.00000   0.00000   0.00000   0.00000   0.00000   0.00000
    D4        3.14159   0.00000   0.00000   0.00000   0.00000   3.14159
         Item               Value     Threshold  Converged?
 Maximum Force            0.000708     0.000450     NO 
 RMS     Force            0.000416     0.000300     NO 
 Maximum Displacement     0.006038     0.001800     NO 
 RMS     Displacement     0.003247     0.001200     NO 
 Predicted change in Energy=-8.360648D-06
 Lowest energy point so far.  Saving SCF results.
 GradGradGradGradGradGradGradGradGradGradGradGradGradGradGradGradGradGrad

 Leave Link  103 at Thu Jun  1 09:09:56 2023, MaxMem=  3145728000 cpu:               0.3 elap:               0.0
 (Enter /share/apps/g16/E6B-113X_avx2/g16/l202.exe)
                          Input orientation:                          
 ---------------------------------------------------------------------
 Center     Atomic      Atomic             Coordinates (Angstroms)
 Number     Number       Type             X           Y           Z
 ---------------------------------------------------------------------
      1          6           0        1.095438    1.783841    0.000000
      2          1           0        1.615015    0.821199    0.000000
      3          1           0        0.002008    1.751962    0.000000
      4          6           0        1.760104    2.935594    0.000000
      5          1           0        1.240527    3.898236    0.000000
      6          1           0        2.853534    2.967473    0.000000
 ---------------------------------------------------------------------
                    Distance matrix (angstroms):
                    1          2          3          4          5
     1  C    0.000000
     2  H    1.093911   0.000000
     3  H    1.093895   1.862286   0.000000
     4  C    1.329780   2.119367   2.119407   0.000000
     5  H    2.119367   3.099742   2.477988   1.093911   0.000000
     6  H    2.119407   2.477988   3.099785   1.093895   1.862286
                    6
     6  H    0.000000
 Symmetry turned off by external request.
 Stoichiometry    C2H4
 Framework group  C2H[SGH(C2H4)]
 Deg. of freedom     5
 Full point group                 C2H     NOp   4
 Rotational constants (GHZ):         144.5902804          30.0850190          24.9033569
 Leave Link  202 at Thu Jun  1 09:09:56 2023, MaxMem=  3145728000 cpu:               0.2 elap:               0.0
 (Enter /share/apps/g16/E6B-113X_avx2/g16/l301.exe)
 Standard basis: def2SVP (5D, 7F)
 Ernie: Thresh=  0.10000D-02 Tol=  0.10000D-05 Strict=F.
    48 basis functions,    78 primitive gaussians,    50 cartesian basis functions
     8 alpha electrons        8 beta electrons
       nuclear repulsion energy        33.2652637229 Hartrees.
 IExCor= 4639 DFT=T Ex+Corr=wB97XD ExCW=0 ScaHFX=  1.000000
 ScaDFX=  1.000000  1.000000  1.000000  1.000000 ScalE2=  1.000000  1.000000
 IRadAn=      5 IRanWt=     -1 IRanGd=            0 ICorTp=0 IEmpDi=121
 HFx  wShort=  0.000000 wLong=  0.200000 cFull=  0.222036 cShort=  0.000000 cLong=  0.777964
 DFx  wShort=  0.000000 wLong=  0.200000 cFull=  0.000000 cShort=  0.000000 cLong=  1.000000
 NAtoms=    6 NActive=    6 NUniq=    6 SFac= 1.00D+00 NAtFMM=   60 NAOKFM=F Big=F
 Integral buffers will be    131072 words long.
 Raffenetti 2 integral format.
 Two-electron integral symmetry is turned off.
 R6Disp:  Grimme-D2 Dispersion energy=       -0.0008378280 Hartrees.
 Nuclear repulsion after empirical dispersion term =       33.2644258948 Hartrees.
 Leave Link  301 at Thu Jun  1 09:09:56 2023, MaxMem=  3145728000 cpu:               0.6 elap:               0.0
 (Enter /share/apps/g16/E6B-113X_avx2/g16/l302.exe)
 NPDir=0 NMtPBC=     1 NCelOv=     1 NCel=       1 NClECP=     1 NCelD=      1
         NCelK=      1 NCelE2=     1 NClLst=     1 CellRange=     0.0.
 One-electron integrals computed using PRISM.
   1 Symmetry operations used in ECPInt.
 ECPInt:  NShTT=     300 NPrTT=    1028 LenC2=     301 LenP2D=     971.
 LDataN:  DoStor=T MaxTD1= 4 Len=   56
 NBasis=    48 RedAO= T EigKep=  3.92D-03  NBF=    48
 NBsUse=    48 1.00D-06 EigRej= -1.00D+00 NBFU=    48
 Precomputing XC quadrature grid using
 IXCGrd= 4 IRadAn=           5 IRanWt=          -1 IRanGd=           0 AccXCQ= 0.00D+00.
 Generated NRdTot=       0 NPtTot=           0 NUsed=           0 NTot=          32
 NSgBfM=    50    50    50    50    50 MxSgAt=     6 MxSgA2=     6.
 Leave Link  302 at Thu Jun  1 09:09:57 2023, MaxMem=  3145728000 cpu:               2.8 elap:               0.1
 (Enter /share/apps/g16/E6B-113X_avx2/g16/l303.exe)
 DipDrv:  MaxL=1.
 Leave Link  303 at Thu Jun  1 09:09:57 2023, MaxMem=  3145728000 cpu:               0.4 elap:               0.0
 (Enter /share/apps/g16/E6B-113X_avx2/g16/l401.exe)
 Initial guess from the checkpoint file:  "ethene.chk"
 B after Tr=     0.000023   -0.000014    0.000000
         Rot=    1.000000    0.000000    0.000000   -0.000003 Ang=   0.00 deg.
 Guess basis will be translated and rotated to current coordinates.
 JPrj=2 DoOrth=T DoCkMO=T.
 Leave Link  401 at Thu Jun  1 09:09:57 2023, MaxMem=  3145728000 cpu:               1.2 elap:               0.1
 (Enter /share/apps/g16/E6B-113X_avx2/g16/l502.exe)
 Keep R1 ints in memory in canonical form, NReq=22299564.
 FoFCou: FMM=F IPFlag=           0 FMFlag=           0 FMFlg1=           0
         NFxFlg=           0 DoJE=F BraDBF=F KetDBF=F FulRan=T
         wScrn=  0.000000 ICntrl=       600 IOpCl=  0 I1Cent=           0 NGrid=           0
         NMat0=    1 NMatS0=   1176 NMatT0=    0 NMatD0=    1 NMtDS0=    0 NMtDT0=    0
 Symmetry not used in FoFCou.
 Two-electron integral symmetry not used.
 Closed shell SCF:
 Using DIIS extrapolation, IDIIS=  1040.
 NGot=  3145728000 LenX=  3144337052 LenY=  3144334111
 Requested convergence on RMS density matrix=1.00D-08 within 128 cycles.
 Requested convergence on MAX density matrix=1.00D-06.
 Requested convergence on             energy=1.00D-06.
 No special actions if energy rises.

 Cycle   1  Pass 1  IDiag  1:
 E= -78.5010638526344    
 DIIS: error= 1.78D-04 at cycle   1 NSaved=   1.
 NSaved= 1 IEnMin= 1 EnMin= -78.5010638526344     IErMin= 1 ErrMin= 1.78D-04
 ErrMax= 1.78D-04  0.00D+00 EMaxC= 1.00D-01 BMatC= 1.43D-06 BMatP= 1.43D-06
 IDIUse=3 WtCom= 9.98D-01 WtEn= 1.78D-03
 Coeff-Com:  0.100D+01
 Coeff-En:   0.100D+01
 Coeff:      0.100D+01
 Gap=     0.772 Goal=   None    Shift=    0.000
 RMSDP=3.03D-05 MaxDP=2.84D-04              OVMax= 4.90D-04

 Cycle   2  Pass 1  IDiag  1:
 E= -78.5010655186484     Delta-E=       -0.000001666014 Rises=F Damp=F
 DIIS: error= 4.97D-05 at cycle   2 NSaved=   2.
 NSaved= 2 IEnMin= 2 EnMin= -78.5010655186484     IErMin= 2 ErrMin= 4.97D-05
 ErrMax= 4.97D-05  0.00D+00 EMaxC= 1.00D-01 BMatC= 5.54D-08 BMatP= 1.43D-06
 IDIUse=1 WtCom= 1.00D+00 WtEn= 0.00D+00
 Coeff-Com: -0.530D-01 0.105D+01
 Coeff:     -0.530D-01 0.105D+01
 Gap=     0.440 Goal=   None    Shift=    0.000
 RMSDP=7.79D-06 MaxDP=9.23D-05 DE=-1.67D-06 OVMax= 1.49D-04

 Cycle   3  Pass 1  IDiag  1:
 E= -78.5010655833514     Delta-E=       -0.000000064703 Rises=F Damp=F
 DIIS: error= 2.47D-05 at cycle   3 NSaved=   3.
 NSaved= 3 IEnMin= 3 EnMin= -78.5010655833514     IErMin= 3 ErrMin= 2.47D-05
 ErrMax= 2.47D-05  0.00D+00 EMaxC= 1.00D-01 BMatC= 1.80D-08 BMatP= 5.54D-08
 IDIUse=1 WtCom= 1.00D+00 WtEn= 0.00D+00
 Coeff-Com: -0.500D-01 0.384D+00 0.666D+00
 Coeff:     -0.500D-01 0.384D+00 0.666D+00
 Gap=     0.440 Goal=   None    Shift=    0.000
 RMSDP=2.45D-06 MaxDP=3.24D-05 DE=-6.47D-08 OVMax= 4.30D-05

 Cycle   4  Pass 1  IDiag  1:
 E= -78.5010656033480     Delta-E=       -0.000000019997 Rises=F Damp=F
 DIIS: error= 2.33D-06 at cycle   4 NSaved=   4.
 NSaved= 4 IEnMin= 4 EnMin= -78.5010656033480     IErMin= 4 ErrMin= 2.33D-06
 ErrMax= 2.33D-06  0.00D+00 EMaxC= 1.00D-01 BMatC= 1.22D-10 BMatP= 1.80D-08
 IDIUse=1 WtCom= 1.00D+00 WtEn= 0.00D+00
 Coeff-Com:  0.397D-02-0.671D-01-0.497D-01 0.111D+01
 Coeff:      0.397D-02-0.671D-01-0.497D-01 0.111D+01
 Gap=     0.440 Goal=   None    Shift=    0.000
 RMSDP=5.91D-07 MaxDP=3.38D-06 DE=-2.00D-08 OVMax= 9.37D-06

 Cycle   5  Pass 1  IDiag  1:
 E= -78.5010656036198     Delta-E=       -0.000000000272 Rises=F Damp=F
 DIIS: error= 2.42D-07 at cycle   5 NSaved=   5.
 NSaved= 5 IEnMin= 5 EnMin= -78.5010656036198     IErMin= 5 ErrMin= 2.42D-07
 ErrMax= 2.42D-07  0.00D+00 EMaxC= 1.00D-01 BMatC= 1.69D-12 BMatP= 1.22D-10
 IDIUse=1 WtCom= 1.00D+00 WtEn= 0.00D+00
 Coeff-Com:  0.640D-03-0.409D-02-0.733D-02-0.102D-01 0.102D+01
 Coeff:      0.640D-03-0.409D-02-0.733D-02-0.102D-01 0.102D+01
 Gap=     0.440 Goal=   None    Shift=    0.000
 RMSDP=8.70D-08 MaxDP=4.98D-07 DE=-2.72D-10 OVMax= 1.03D-06

 Cycle   6  Pass 1  IDiag  1:
 E= -78.5010656036232     Delta-E=       -0.000000000003 Rises=F Damp=F
 DIIS: error= 4.27D-08 at cycle   6 NSaved=   6.
[...]
     66  08                                                      6          8  2     6     5  95    9                                
 
     X    X                                                                 X                  X    X                                
     X    X                                                                 X                  X                                     
     X    X                                                                                    X                                     
                                                                                               X                                     
                                                                                               X                                     
                                                                                               X                                     
                                                                                               X                                     
                                                                                               X                                     
                                                                                               X                                     
                                                                                               X                                     
                                                                                               X                                     
                                                                                               X                                     
                                                                                               X                                     
                                                                                               X                                     
                                                                                               X                                     
                                                                                               X                                     
                                                                                               X                                     
                                                                                               X                                     
                                                                                               X                                     
                                                                                               X                                     
 
 -------------------------------------------------------------------
 Center     Atomic                   Forces (Hartrees/Bohr)
 Number     Number              X              Y              Z
 -------------------------------------------------------------------
      1        6          -0.000137212   -0.000267914    0.000000000
      2        1          -0.000020777    0.000039232    0.000000000
      3        1           0.000038084    0.000003070    0.000000000
      4        6           0.000137212    0.000267914    0.000000000
      5        1           0.000020777   -0.000039232    0.000000000
      6        1          -0.000038084   -0.000003070    0.000000000
 -------------------------------------------------------------------
 Cartesian Forces:  Max     0.000267914 RMS     0.000102218
 Force constants in Cartesian coordinates: 
                1             2             3             4             5 
      1  0.711306D+00
      2  0.110109D+00  0.838657D+00
      3  0.000000D+00  0.000000D+00  0.112898D+00
      4 -0.127067D+00  0.126364D+00  0.000000D+00  0.123056D+00
      5  0.121245D+00 -0.275919D+00  0.000000D+00 -0.130273D+00  0.291692D+00
      6  0.000000D+00  0.000000D+00 -0.374931D-01  0.000000D+00  0.000000D+00
      7 -0.345707D+00 -0.527333D-02  0.000000D+00 -0.786538D-02 -0.385495D-02
      8 -0.175680D-03 -0.570859D-01  0.000000D+00  0.236822D-01  0.359518D-02
      9  0.000000D+00  0.000000D+00 -0.374814D-01  0.000000D+00  0.000000D+00
     10 -0.239900D+00 -0.217871D+00  0.000000D+00  0.114924D-01  0.159184D-01
     11 -0.217871D+00 -0.491641D+00  0.000000D+00 -0.167132D-01 -0.178138D-01
     12  0.000000D+00  0.000000D+00 -0.508401D-01  0.000000D+00  0.000000D+00
     13  0.114924D-01 -0.167132D-01  0.000000D+00 -0.729987D-03 -0.304594D-02
     14  0.159184D-01 -0.178138D-01  0.000000D+00 -0.304594D-02 -0.267384D-02
     15  0.000000D+00  0.000000D+00  0.645893D-02  0.000000D+00  0.000000D+00
     16 -0.101255D-01  0.338469D-02  0.000000D+00  0.111317D-02  0.103697D-04
     17 -0.292254D-01  0.380264D-02  0.000000D+00 -0.143640D-04  0.111871D-02
     18  0.000000D+00  0.000000D+00  0.645805D-02  0.000000D+00  0.000000D+00
                6             7             8             9            10 
      6  0.244918D-01
      7  0.000000D+00  0.362126D+00
      8  0.000000D+00  0.809156D-02  0.524254D-01
      9  0.281934D-02  0.000000D+00  0.000000D+00  0.244876D-01
     10  0.000000D+00 -0.101255D-01 -0.292254D-01  0.000000D+00  0.711306D+00
     11  0.000000D+00  0.338469D-02  0.380264D-02  0.000000D+00  0.110109D+00
     12  0.645893D-02  0.000000D+00  0.000000D+00  0.645805D-02  0.000000D+00
     13  0.000000D+00  0.111317D-02 -0.143641D-04  0.000000D+00 -0.127067D+00
     14  0.000000D+00  0.103694D-04  0.111871D-02  0.000000D+00  0.121245D+00
     15  0.126775D-01  0.000000D+00  0.000000D+00 -0.895447D-02  0.000000D+00
     16  0.000000D+00  0.458621D-03 -0.235834D-02  0.000000D+00 -0.345707D+00
     17  0.000000D+00 -0.235834D-02 -0.385606D-02  0.000000D+00 -0.175680D-03
     18 -0.895447D-02  0.000000D+00  0.000000D+00  0.126709D-01  0.000000D+00
               11            12            13            14            15 
     11  0.838657D+00
     12  0.000000D+00  0.112898D+00
     13  0.126364D+00  0.000000D+00  0.123056D+00
     14 -0.275919D+00  0.000000D+00 -0.130273D+00  0.291692D+00
     15  0.000000D+00 -0.374931D-01  0.000000D+00  0.000000D+00  0.244918D-01
     16 -0.527333D-02  0.000000D+00 -0.786538D-02 -0.385495D-02  0.000000D+00
     17 -0.570859D-01  0.000000D+00  0.236822D-01  0.359518D-02  0.000000D+00
     18  0.000000D+00 -0.374814D-01  0.000000D+00  0.000000D+00  0.281934D-02
               16            17            18 
     16  0.362126D+00
     17  0.809156D-02  0.524254D-01
     18  0.000000D+00  0.000000D+00  0.244876D-01
 FormGI is forming the generalized inverse of G from B-inverse, IUseBI=4.
 Force constants in internal coordinates: 
                1             2             3             4             5 
      1  0.362541D+00
      2  0.111486D-03  0.362335D+00
      3  0.378303D-02  0.380744D-02  0.668203D+00
      4 -0.319624D-03  0.494259D-03  0.378304D-02  0.362541D+00
      5  0.494259D-03 -0.316415D-03  0.380745D-02  0.111488D-03  0.362335D+00
      6  0.627071D-02  0.622478D-02 -0.203435D-01 -0.101818D-02 -0.102068D-02
      7  0.420539D-02 -0.104964D-01  0.101521D-01  0.413692D-02 -0.308036D-02
      8 -0.104761D-01  0.427163D-02  0.101914D-01 -0.311875D-02  0.410104D-02
      9  0.413692D-02 -0.308036D-02  0.101521D-01  0.420539D-02 -0.104964D-01
     10 -0.311875D-02  0.410104D-02  0.101914D-01 -0.104761D-01  0.427163D-02
     11 -0.101818D-02 -0.102068D-02 -0.203435D-01  0.627071D-02  0.622478D-02
     12  0.000000D+00  0.000000D+00  0.000000D+00  0.000000D+00  0.000000D+00
     13  0.000000D+00  0.000000D+00  0.000000D+00  0.000000D+00  0.000000D+00
     14  0.000000D+00  0.000000D+00  0.000000D+00  0.000000D+00  0.000000D+00
     15  0.000000D+00  0.000000D+00  0.000000D+00  0.000000D+00  0.000000D+00
                6             7             8             9            10 
      6  0.712026D-01
      7 -0.355886D-01  0.806173D-01
      8 -0.356140D-01 -0.450288D-01  0.806428D-01
      9 -0.153294D-02  0.977623D-02 -0.824329D-02  0.806173D-01
     10 -0.152961D-02 -0.824329D-02  0.977290D-02 -0.450288D-01  0.806428D-01
     11  0.306255D-02 -0.153294D-02 -0.152961D-02 -0.355886D-01 -0.356140D-01
     12  0.000000D+00  0.000000D+00  0.000000D+00  0.000000D+00  0.000000D+00
     13  0.000000D+00  0.000000D+00  0.000000D+00  0.000000D+00  0.000000D+00
     14  0.000000D+00  0.000000D+00  0.000000D+00  0.000000D+00  0.000000D+00
     15  0.000000D+00  0.000000D+00  0.000000D+00  0.000000D+00  0.000000D+00
               11            12            13            14            15 
     11  0.712026D-01
     12  0.000000D+00  0.323817D-01
     13  0.000000D+00  0.837737D-02  0.266378D-01
     14  0.000000D+00  0.837737D-02 -0.988751D-02  0.266378D-01
     15  0.000000D+00 -0.156269D-01  0.837290D-02  0.837290D-02  0.323727D-01
 Leave Link  716 at Thu Jun  1 09:10:03 2023, MaxMem=  3145728000 cpu:               0.4 elap:               0.0
 (Enter /share/apps/g16/E6B-113X_avx2/g16/l103.exe)

 GradGradGradGradGradGradGradGradGradGradGradGradGradGradGradGradGradGrad
 Berny optimization.
 Red2BG is reusing G-inverse.
 Internal  Forces:  Max     0.000255340 RMS     0.000069348
 Search for a local minimum.
 Step number   1 out of a maximum of    2
 All quantities printed in internal units (Hartrees-Bohrs-Radians)
 Second derivative matrix not updated -- analytic derivatives used.
 The second derivative matrix:
                          R1        R2        R3        R4        R5
           R1           0.36254
           R2           0.00011   0.36234
           R3           0.00378   0.00381   0.66820
           R4          -0.00032   0.00049   0.00378   0.36254
           R5           0.00049  -0.00032   0.00381   0.00011   0.36234
           A1           0.00627   0.00622  -0.02034  -0.00102  -0.00102
           A2           0.00421  -0.01050   0.01015   0.00414  -0.00308
           A3          -0.01048   0.00427   0.01019  -0.00312   0.00410
           A4           0.00414  -0.00308   0.01015   0.00421  -0.01050
           A5          -0.00312   0.00410   0.01019  -0.01048   0.00427
           A6          -0.00102  -0.00102  -0.02034   0.00627   0.00622
           D1           0.00000   0.00000   0.00000   0.00000   0.00000
           D2           0.00000   0.00000   0.00000   0.00000   0.00000
           D3           0.00000   0.00000   0.00000   0.00000   0.00000
           D4           0.00000   0.00000   0.00000   0.00000   0.00000
                          A1        A2        A3        A4        A5
           A1           0.07120
           A2          -0.03559   0.08062
           A3          -0.03561  -0.04503   0.08064
           A4          -0.00153   0.00978  -0.00824   0.08062
           A5          -0.00153  -0.00824   0.00977  -0.04503   0.08064
           A6           0.00306  -0.00153  -0.00153  -0.03559  -0.03561
           D1           0.00000   0.00000   0.00000   0.00000   0.00000
           D2           0.00000   0.00000   0.00000   0.00000   0.00000
           D3           0.00000   0.00000   0.00000   0.00000   0.00000
           D4           0.00000   0.00000   0.00000   0.00000   0.00000
                          A6        D1        D2        D3        D4
           A6           0.07120
           D1           0.00000   0.03238
           D2           0.00000   0.00838   0.02664
           D3           0.00000   0.00838  -0.00989   0.02664
           D4           0.00000  -0.01563   0.00837   0.00837   0.03237
 ITU=  0
     Eigenvalues ---    0.03350   0.03653   0.04800   0.10160   0.10742
     Eigenvalues ---    0.10882   0.14149   0.36291   0.36295   0.36339
     Eigenvalues ---    0.36372   0.67058
 Angle between quadratic step and forces=  24.05 degrees.
 Linear search not attempted -- first point.
 Iteration  1 RMS(Cart)=  0.00008097 RMS(Int)=  0.00000000
 Iteration  2 RMS(Cart)=  0.00000000 RMS(Int)=  0.00000000
 ITry= 1 IFail=0 DXMaxC= 1.83D-04 DCOld= 1.00D+10 DXMaxT= 3.00D-01 DXLimC= 3.00D+00 Rises=F
 Variable       Old X    -DE/DX   Delta X   Delta X   Delta X     New X
                                 (Linear)    (Quad)   (Total)
    R1        2.06719  -0.00004   0.00000  -0.00013  -0.00013   2.06706
    R2        2.06716  -0.00004   0.00000  -0.00011  -0.00011   2.06705
    R3        2.51292   0.00026   0.00000   0.00039   0.00039   2.51331
    R4        2.06719  -0.00004   0.00000  -0.00013  -0.00013   2.06706
    R5        2.06716  -0.00004   0.00000  -0.00011  -0.00011   2.06705
    A1        2.03658   0.00000   0.00000   0.00010   0.00010   2.03668
    A2        2.12326   0.00000   0.00000  -0.00002  -0.00002   2.12324
    A3        2.12335   0.00000   0.00000  -0.00008  -0.00008   2.12327
    A4        2.12326   0.00000   0.00000  -0.00002  -0.00002   2.12324
    A5        2.12335   0.00000   0.00000  -0.00008  -0.00008   2.12327
    A6        2.03658   0.00000   0.00000   0.00010   0.00010   2.03668
    D1        3.14159   0.00000   0.00000   0.00000   0.00000   3.14159
    D2        0.00000   0.00000   0.00000   0.00000   0.00000   0.00000
    D3        0.00000   0.00000   0.00000   0.00000   0.00000   0.00000
    D4        3.14159   0.00000   0.00000   0.00000   0.00000   3.14159
         Item               Value     Threshold  Converged?
 Maximum Force            0.000255     0.000450     YES
 RMS     Force            0.000069     0.000300     YES
 Maximum Displacement     0.000183     0.001800     YES
 RMS     Displacement     0.000081     0.001200     YES
 Predicted change in Energy=-6.073532D-08
 Optimization completed.
    -- Stationary point found.
                           ----------------------------
                           !   Optimized Parameters   !
                           ! (Angstroms and Degrees)  !
 --------------------------                            --------------------------
 ! Name  Definition              Value          Derivative Info.                !
 --------------------------------------------------------------------------------
 ! R1    R(1,2)                  1.0939         -DE/DX =    0.0                 !
 ! R2    R(1,3)                  1.0939         -DE/DX =    0.0                 !
 ! R3    R(1,4)                  1.3298         -DE/DX =    0.0003              !
 ! R4    R(4,5)                  1.0939         -DE/DX =    0.0                 !
 ! R5    R(4,6)                  1.0939         -DE/DX =    0.0                 !
 ! A1    A(2,1,3)              116.6875         -DE/DX =    0.0                 !
 ! A2    A(2,1,4)              121.6536         -DE/DX =    0.0                 !
 ! A3    A(3,1,4)              121.6588         -DE/DX =    0.0                 !
 ! A4    A(1,4,5)              121.6536         -DE/DX =    0.0                 !
 ! A5    A(1,4,6)              121.6588         -DE/DX =    0.0                 !
 ! A6    A(5,4,6)              116.6875         -DE/DX =    0.0                 !
 ! D1    D(2,1,4,5)            180.0            -DE/DX =    0.0                 !
 ! D2    D(2,1,4,6)              0.0            -DE/DX =    0.0                 !
 ! D3    D(3,1,4,5)              0.0            -DE/DX =    0.0                 !
 ! D4    D(3,1,4,6)            180.0            -DE/DX =    0.0                 !
 --------------------------------------------------------------------------------
 GradGradGradGradGradGradGradGradGradGradGradGradGradGradGradGradGradGrad

 Leave Link  103 at Thu Jun  1 09:10:03 2023, MaxMem=  3145728000 cpu:               0.2 elap:               0.0
 (Enter /share/apps/g16/E6B-113X_avx2/g16/l9999.exe)
 Dipole is zero, so no output in dipole orientation.

 ----------------------------------------------------------------------

 Electric dipole moment (input orientation):
 (Debye = 10**-18 statcoulomb cm , SI units = C m)
                  (au)            (Debye)         (10**-30 SI)
   Tot        0.000000D+00      0.000000D+00      0.000000D+00
   x          0.000000D+00      0.000000D+00      0.000000D+00
   y          0.000000D+00      0.000000D+00      0.000000D+00
   z          0.000000D+00      0.000000D+00      0.000000D+00

 Dipole polarizability, Alpha (input orientation).
 (esu units = cm**3 , SI units = C**2 m**2 J**-1)
 Alpha(0;0):
               (au)            (10**-24 esu)      (10**-40 SI)
   iso        0.214321D+02      0.317591D+01      0.353368D+01
   aniso      0.184506D+02      0.273410D+01      0.304210D+01
   xx         0.236425D+02      0.350345D+01      0.389811D+01
   yx         0.506134D+01      0.750013D+00      0.834502D+00
   yy         0.295027D+02      0.437185D+01      0.486434D+01
   zx         0.000000D+00      0.000000D+00      0.000000D+00
   zy         0.000000D+00      0.000000D+00      0.000000D+00
   zz         0.111512D+02      0.165244D+01      0.183859D+01

 ----------------------------------------------------------------------
 1\1\GINC-COMPUTE-0-23\Freq\RwB97XD\def2SVP\C2H4\ROOT\01-Jun-2023\0\\#P
  Geom=AllCheck Guess=TCheck SCRF=Check GenChk RwB97XD/def2SVP Freq\\Ti
 tle Card Required\\0,1\C,1.0954383334,1.7838412089,0.0000000002\H,1.61
 5015218,0.8211988933,0.\H,0.0020083097,1.7519617285,0.\C,1.7601038733,
 2.9355940111,-0.0000000001\H,1.2405269887,3.8982363268,0.\H,2.85353389
 7,2.9674734915,0.\\Version=ES64L-G16RevA.03\HF=-78.5010656\RMSD=0.000e
 +00\RMSF=1.022e-04\ZeroPoint=0.0511709\Thermal=0.0542128\Dipole=0.,0.,
 0.\DipoleDeriv=0.0554654,-0.042765,0.,-0.0428863,0.0060455,0.,0.,0.,-0
 .2869293,0.0235196,0.0669145,0.,0.0349556,-0.0541807,0.,0.,0.,0.143450
 1,-0.0789849,-0.0241495,0.,0.0079307,0.0481352,0.,0.,0.,0.1434791,0.05
 54654,-0.042765,0.,-0.0428863,0.0060455,0.,0.,0.,-0.2869293,0.0235196,
 0.0669144,0.,0.0349556,-0.0541807,0.,0.,0.,0.1434501,-0.0789849,-0.024
 1495,0.,0.0079307,0.0481352,0.,0.,0.,0.1434791\Polar=23.6424532,5.0613
 384,29.5026993,0.,0.,11.1512482\Quadrupole=0.7371751,0.7596334,-1.4968
 085,0.0196917,0.,0.\PG=C02H [SGH(C2H4)]\NImag=0\\0.71130580,0.11010930
 ,0.83865669,0.,0.,0.11289766,-0.12706652,0.12636404,0.,0.12305634,0.12
 124482,-0.27591851,0.,-0.13027274,0.29169225,0.,0.,-0.03749315,0.,0.,0
 .02449181,-0.34570661,-0.00527333,0.,-0.00786538,-0.00385495,0.,0.3621
 2571,-0.00017568,-0.05708589,0.,0.02368223,0.00359518,0.,0.00809156,0.
 05242541,0.,0.,-0.03748136,0.,0.,0.00281934,0.,0.,0.02448757,-0.239899
 52,-0.21787147,0.,0.01149237,0.01591843,0.,-0.01012552,-0.02922540,0.,
 0.71130580,-0.21787147,-0.49164113,0.,-0.01671323,-0.01781379,0.,0.003
 38469,0.00380264,0.,0.11010929,0.83865669,0.,0.,-0.05084013,0.,0.,0.00
 645893,0.,0.,0.00645805,0.,0.,0.11289766,0.01149237,-0.01671323,0.,-0.
 00072999,-0.00304594,0.,0.00111317,-0.00001436,0.,-0.12706652,0.126364
 04,0.,0.12305634,0.01591843,-0.01781379,0.,-0.00304594,-0.00267384,0.,
 0.00001037,0.00111871,0.,0.12124482,-0.27591851,0.,-0.13027274,0.29169
 225,0.,0.,0.00645893,0.,0.,0.01267754,0.,0.,-0.00895447,0.,0.,-0.03749
 315,0.,0.,0.02449181,-0.01012552,0.00338469,0.,0.00111317,0.00001037,0
 .,0.00045862,-0.00235834,0.,-0.34570661,-0.00527333,0.,-0.00786538,-0.
 00385495,0.,0.36212571,-0.02922540,0.00380264,0.,-0.00001436,0.0011187
 1,0.,-0.00235834,-0.00385606,0.,-0.00017568,-0.05708589,0.,0.02368223,
 0.00359518,0.,0.00809156,0.05242541,0.,0.,0.00645805,0.,0.,-0.00895447
 ,0.,0.,0.01267087,0.,0.,-0.03748136,0.,0.,0.00281934,0.,0.,0.02448757\
 \0.00013721,0.00026791,0.,0.00002078,-0.00003923,0.,-0.00003808,-0.000
 00307,0.,-0.00013721,-0.00026791,0.,-0.00002078,0.00003923,0.,0.000038
 08,0.00000307,0.\\\@


 The chemist is a guest at the physicist's table and
 frequently dines well.
                   -- Richard Bersohn
 Job cpu time:       0 days  0 hours  1 minutes 36.0 seconds.
 Elapsed time:       0 days  0 hours  0 minutes  4.3 seconds.
 File lengths (MBytes):  RWF=      6 Int=      0 D2E=      0 Chk=      1 Scr=      1
 Normal termination of Gaussian 16 at Thu Jun  1 09:10:03 2023.
